<?xml version="1.0" encoding="ISO-8859-1"?>
<modeling>
 <generator>
  <i name="program" type="string">vasp </i>
  <i name="version" type="string">5.4.1  </i>
  <i name="subversion" type="string">05Feb16 (build Jan 29 2020 16:04:39) complex                          parallel </i>
  <i name="platform" type="string">IFC91_ompi </i>
  <i name="date" type="string">2020 02 26 </i>
  <i name="time" type="string">20:52:47 </i>
 </generator>
 <incar>
  <i type="string" name="SYSTEM"> diamond Si</i>
  <i type="int" name="ISTART">     0</i>
  <i type="string" name="PREC">accurate</i>
  <i type="int" name="NSIM">     4</i>
  <i type="int" name="ICHARG">     2</i>
  <i type="int" name="NELM">    60</i>
  <i type="int" name="NELMDL">     3</i>
  <i type="int" name="NELMIN">     0</i>
  <i type="int" name="IBRION">     2</i>
  <i name="EDIFF">      0.00010000</i>
  <i name="EDIFFG">     -0.01000000</i>
  <i type="int" name="NSW">     9</i>
  <i type="int" name="ISIF">     3</i>
  <i name="ENCUT">    240.00000000</i>
  <i name="POTIM">      1.00000000</i>
  <i type="logical" name="LPLANE"> F  </i>
  <i type="int" name="ISMEAR">     0</i>
  <i name="SIGMA">      0.10000000</i>
  <v type="int" name="KPOINT_BSE">    -1     0     0     0</v>
  <i type="int" name="NELM">    60</i>
 </incar>
 <kpoints>
  <generation param="Monkhorst-Pack">
   <v type="int" name="divisions">      11       11       11 </v>
   <v name="usershift">      0.00000000       0.00000000       0.00000000 </v>
   <v name="genvec1">      0.09090909       0.00000000       0.00000000 </v>
   <v name="genvec2">      0.00000000       0.09090909       0.00000000 </v>
   <v name="genvec3">      0.00000000       0.00000000       0.09090909 </v>
   <v name="shift">      0.00000000       0.00000000       0.00000000 </v>
  </generation>
  <varray name="kpointlist" >
   <v>       0.00000000       0.00000000       0.00000000 </v>
   <v>       0.09090909       0.00000000       0.00000000 </v>
   <v>       0.18181818       0.00000000       0.00000000 </v>
   <v>       0.27272727       0.00000000       0.00000000 </v>
   <v>       0.36363636       0.00000000       0.00000000 </v>
   <v>       0.45454545       0.00000000       0.00000000 </v>
   <v>       0.09090909       0.09090909       0.00000000 </v>
   <v>       0.18181818       0.09090909       0.00000000 </v>
   <v>       0.27272727       0.09090909       0.00000000 </v>
   <v>       0.36363636       0.09090909       0.00000000 </v>
   <v>       0.45454545       0.09090909       0.00000000 </v>
   <v>      -0.45454545       0.09090909       0.00000000 </v>
   <v>      -0.36363636       0.09090909       0.00000000 </v>
   <v>      -0.27272727       0.09090909       0.00000000 </v>
   <v>      -0.18181818       0.09090909       0.00000000 </v>
   <v>      -0.09090909       0.09090909       0.00000000 </v>
   <v>       0.18181818       0.18181818       0.00000000 </v>
   <v>       0.27272727       0.18181818       0.00000000 </v>
   <v>       0.36363636       0.18181818       0.00000000 </v>
   <v>       0.45454545       0.18181818       0.00000000 </v>
   <v>      -0.45454545       0.18181818       0.00000000 </v>
   <v>      -0.36363636       0.18181818       0.00000000 </v>
   <v>      -0.27272727       0.18181818       0.00000000 </v>
   <v>      -0.18181818       0.18181818       0.00000000 </v>
   <v>       0.27272727       0.27272727       0.00000000 </v>
   <v>       0.36363636       0.27272727       0.00000000 </v>
   <v>       0.45454545       0.27272727       0.00000000 </v>
   <v>      -0.45454545       0.27272727       0.00000000 </v>
   <v>      -0.36363636       0.27272727       0.00000000 </v>
   <v>      -0.27272727       0.27272727       0.00000000 </v>
   <v>       0.36363636       0.36363636       0.00000000 </v>
   <v>       0.45454545       0.36363636       0.00000000 </v>
   <v>      -0.45454545       0.36363636       0.00000000 </v>
   <v>      -0.36363636       0.36363636       0.00000000 </v>
   <v>       0.45454545       0.45454545       0.00000000 </v>
   <v>      -0.45454545       0.45454545       0.00000000 </v>
   <v>       0.27272727       0.18181818       0.09090909 </v>
   <v>       0.36363636       0.18181818       0.09090909 </v>
   <v>       0.45454545       0.18181818       0.09090909 </v>
   <v>      -0.45454545       0.18181818       0.09090909 </v>
   <v>       0.36363636       0.27272727       0.09090909 </v>
   <v>       0.45454545       0.27272727       0.09090909 </v>
   <v>      -0.45454545       0.27272727       0.09090909 </v>
   <v>      -0.36363636       0.27272727       0.09090909 </v>
   <v>      -0.27272727       0.27272727       0.09090909 </v>
   <v>      -0.18181818       0.27272727       0.09090909 </v>
   <v>       0.45454545       0.36363636       0.09090909 </v>
   <v>      -0.45454545       0.36363636       0.09090909 </v>
   <v>      -0.36363636       0.36363636       0.09090909 </v>
   <v>      -0.27272727       0.36363636       0.09090909 </v>
   <v>      -0.45454545       0.45454545       0.09090909 </v>
   <v>      -0.36363636       0.45454545       0.09090909 </v>
   <v>      -0.45454545       0.36363636       0.18181818 </v>
   <v>      -0.36363636       0.36363636       0.18181818 </v>
   <v>      -0.36363636       0.45454545       0.18181818 </v>
   <v>      -0.27272727       0.45454545       0.18181818 </v>
  </varray>
  <varray name="weights" >
   <v>       0.00075131 </v>
   <v>       0.00601052 </v>
   <v>       0.00601052 </v>
   <v>       0.00601052 </v>
   <v>       0.00601052 </v>
   <v>       0.00601052 </v>
   <v>       0.00450789 </v>
   <v>       0.01803156 </v>
   <v>       0.01803156 </v>
   <v>       0.01803156 </v>
   <v>       0.01803156 </v>
   <v>       0.01803156 </v>
   <v>       0.01803156 </v>
   <v>       0.01803156 </v>
   <v>       0.01803156 </v>
   <v>       0.00901578 </v>
   <v>       0.00450789 </v>
   <v>       0.01803156 </v>
   <v>       0.01803156 </v>
   <v>       0.01803156 </v>
   <v>       0.01803156 </v>
   <v>       0.01803156 </v>
   <v>       0.01803156 </v>
   <v>       0.00901578 </v>
   <v>       0.00450789 </v>
   <v>       0.01803156 </v>
   <v>       0.01803156 </v>
   <v>       0.01803156 </v>
   <v>       0.01803156 </v>
   <v>       0.00901578 </v>
   <v>       0.00450789 </v>
   <v>       0.01803156 </v>
   <v>       0.01803156 </v>
   <v>       0.00901578 </v>
   <v>       0.00450789 </v>
   <v>       0.00901578 </v>
   <v>       0.01803156 </v>
   <v>       0.03606311 </v>
   <v>       0.03606311 </v>
   <v>       0.03606311 </v>
   <v>       0.01803156 </v>
   <v>       0.03606311 </v>
   <v>       0.03606311 </v>
   <v>       0.03606311 </v>
   <v>       0.03606311 </v>
   <v>       0.01803156 </v>
   <v>       0.01803156 </v>
   <v>       0.03606311 </v>
   <v>       0.03606311 </v>
   <v>       0.01803156 </v>
   <v>       0.01803156 </v>
   <v>       0.01803156 </v>
   <v>       0.01803156 </v>
   <v>       0.03606311 </v>
   <v>       0.01803156 </v>
   <v>       0.01803156 </v>
  </varray>
 </kpoints>
 <parameters>
  <separator name="general" >
   <i type="string" name="SYSTEM">diamond Si</i>
   <i type="logical" name="LCOMPAT"> F  </i>
  </separator>
  <separator name="electronic" >
   <i type="string" name="PREC">accura</i>
   <i name="ENMAX">    240.00000000</i>
   <i name="ENAUG">    322.06900000</i>
   <i name="EDIFF">      0.00010000</i>
   <i type="int" name="IALGO">    38</i>
   <i type="int" name="IWAVPR">    11</i>
   <i type="int" name="NBANDS">    10</i>
   <i name="NELECT">      8.00000000</i>
   <i type="int" name="TURBO">     0</i>
   <i type="int" name="IRESTART">     0</i>
   <i type="int" name="NREBOOT">     0</i>
   <i type="int" name="NMIN">     0</i>
   <i name="EREF">      0.00000000</i>
   <separator name="electronic smearing" >
    <i type="int" name="ISMEAR">     0</i>
    <i name="SIGMA">      0.10000000</i>
    <i name="KSPACING">      0.50000000</i>
    <i type="logical" name="KGAMMA"> T  </i>
   </separator>
   <separator name="electronic projectors" >
    <i type="logical" name="LREAL"> F  </i>
    <v name="ROPT">      0.00000000</v>
    <i type="int" name="LMAXPAW">  -100</i>
    <i type="int" name="LMAXMIX">     2</i>
    <i type="logical" name="NLSPLINE"> F  </i>
   </separator>
   <separator name="electronic startup" >
    <i type="int" name="ISTART">     0</i>
    <i type="int" name="ICHARG">     2</i>
    <i type="int" name="INIWAV">     1</i>
   </separator>
   <separator name="electronic spin" >
    <i type="int" name="ISPIN">     1</i>
    <i type="logical" name="LNONCOLLINEAR"> F  </i>
    <v name="MAGMOM">      1.00000000      1.00000000</v>
    <i name="NUPDOWN">     -1.00000000</i>
    <i type="logical" name="LSORBIT"> F  </i>
    <v name="SAXIS">      0.00000000      0.00000000      1.00000000</v>
    <i type="logical" name="LSPIRAL"> F  </i>
    <v name="QSPIRAL">      0.00000000      0.00000000      0.00000000</v>
    <i type="logical" name="LZEROZ"> F  </i>
   </separator>
   <separator name="electronic exchange-correlation" >
    <i type="logical" name="LASPH"> F  </i>
    <i type="logical" name="LMETAGGA"> F  </i>
   </separator>
   <separator name="electronic convergence" >
    <i type="int" name="NELM">    60</i>
    <i type="int" name="NELMDL">     3</i>
    <i type="int" name="NELMIN">     0</i>
    <i name="ENINI">    240.00000000</i>
    <separator name="electronic convergence detail" >
     <i type="logical" name="LDIAG"> T  </i>
     <i type="logical" name="LSUBROT"> F  </i>
     <i name="WEIMIN">      0.00100000</i>
     <i name="EBREAK">      0.00000250</i>
     <i name="DEPER">      0.30000000</i>
     <i type="int" name="NRMM">     4</i>
     <i name="TIME">      0.40000000</i>
    </separator>
   </separator>
   <separator name="electronic mixer" >
    <i name="AMIX">      0.40000000</i>
    <i name="BMIX">      1.00000000</i>
    <i name="AMIN">      0.10000000</i>
    <i name="AMIX_MAG">      1.60000000</i>
    <i name="BMIX_MAG">      1.00000000</i>
    <separator name="electronic mixer details" >
     <i type="int" name="IMIX">     4</i>
     <i type="logical" name="MIXFIRST"> F  </i>
     <i type="int" name="MAXMIX">   -45</i>
     <i name="WC">    100.00000000</i>
     <i type="int" name="INIMIX">     1</i>
     <i type="int" name="MIXPRE">     1</i>
     <i type="int" name="MREMOVE">     5</i>
    </separator>
   </separator>
   <separator name="electronic dipolcorrection" >
    <i type="logical" name="LDIPOL"> F  </i>
    <i type="logical" name="LMONO"> F  </i>
    <i type="int" name="IDIPOL">     0</i>
    <i name="EPSILON">      1.00000000</i>
    <v name="DIPOL">   -100.00000000   -100.00000000   -100.00000000</v>
    <i name="EFIELD">      0.00000000</i>
   </separator>
  </separator>
  <separator name="grids" >
   <i type="int" name="NGX">    20</i>
   <i type="int" name="NGY">    20</i>
   <i type="int" name="NGZ">    20</i>
   <i type="int" name="NGXF">    40</i>
   <i type="int" name="NGYF">    40</i>
   <i type="int" name="NGZF">    40</i>
   <i type="logical" name="ADDGRID"> F  </i>
  </separator>
  <separator name="ionic" >
   <i type="int" name="NSW">     9</i>
   <i type="int" name="IBRION">     2</i>
   <i type="int" name="ISIF">     3</i>
   <i name="PSTRESS">      0.00000000</i>
   <i name="EDIFFG">     -0.01000000</i>
   <i type="int" name="NFREE">     1</i>
   <i name="POTIM">      1.00000000</i>
   <i name="SMASS">     -3.00000000</i>
   <i name="SCALEE">      1.00000000</i>
  </separator>
  <separator name="ionic md" >
   <i name="TEBEG">      0.00010000</i>
   <i name="TEEND">      0.00010000</i>
   <i type="int" name="NBLOCK">     1</i>
   <i type="int" name="KBLOCK">     9</i>
   <i type="int" name="NPACO">   256</i>
   <i name="APACO">     16.00000000</i>
  </separator>
  <separator name="symmetry" >
   <i type="int" name="ISYM">     2</i>
   <i name="SYMPREC">      0.00001000</i>
  </separator>
  <separator name="dos" >
   <i type="logical" name="LORBIT"> F  </i>
   <v name="RWIGS">     -1.00000000</v>
   <i type="int" name="NEDOS">   301</i>
   <i name="EMIN">     10.00000000</i>
   <i name="EMAX">    -10.00000000</i>
   <i name="EFERMI">      0.00000000</i>
  </separator>
  <separator name="writing" >
   <i type="int" name="NWRITE">     2</i>
   <i type="logical" name="LWAVE"> T  </i>
   <i type="logical" name="LCHARG"> T  </i>
   <i type="logical" name="LPARD"> F  </i>
   <i type="logical" name="LVTOT"> F  </i>
   <i type="logical" name="LVHAR"> F  </i>
   <i type="logical" name="LELF"> F  </i>
   <i type="logical" name="LOPTICS"> F  </i>
   <v name="STM">      0.00000000      0.00000000      0.00000000      0.00000000      0.00000000      0.00000000      0.00000000</v>
  </separator>
  <separator name="performance" >
   <i type="int" name="NPAR">     5</i>
   <i type="int" name="NSIM">     4</i>
   <i type="int" name="NBLK">    -1</i>
   <i type="logical" name="LPLANE"> F  </i>
   <i type="logical" name="LSCALAPACK"> T  </i>
   <i type="logical" name="LSCAAWARE"> F  </i>
   <i type="logical" name="LSCALU"> F  </i>
   <i type="logical" name="LASYNC"> F  </i>
   <i type="logical" name="LORBITALREAL"> F  </i>
  </separator>
  <separator name="miscellaneous" >
   <i type="int" name="IDIOT">     3</i>
   <i type="logical" name="LMUSIC"> F  </i>
   <v name="POMASS">     28.08500000</v>
   <v name="DARWINR">      0.00000000</v>
   <v name="DARWINV">      1.00000000</v>
   <i type="logical" name="LCORR"> T  </i>
  </separator>
  <i type="logical" name="GGA_COMPAT"> T  </i>
  <i type="logical" name="LBERRY"> F  </i>
  <i type="int" name="ICORELEVEL">     0</i>
  <i type="logical" name="LDAU"> F  </i>
  <i type="int" name="I_CONSTRAINED_M">     0</i>
  <separator name="electronic exchange-correlation" >
   <i type="string" name="GGA">--</i>
   <i type="int" name="VOSKOWN">     0</i>
   <i type="logical" name="LHFCALC"> F  </i>
   <i type="string" name="PRECFOCK"></i>
   <i type="logical" name="LSYMGRAD"> F  </i>
   <i type="logical" name="LHFONE"> F  </i>
   <i type="logical" name="LRHFCALC"> F  </i>
   <i type="logical" name="LTHOMAS"> F  </i>
   <i type="logical" name="LMODELHF"> F  </i>
   <i name="ENCUT4O">     -1.00000000</i>
   <i type="int" name="EXXOEP">     0</i>
   <i type="int" name="FOURORBIT">     0</i>
   <i name="AEXX">      0.00000000</i>
   <i name="HFALPHA">      0.00000000</i>
   <i name="MCALPHA">      0.00000000</i>
   <i name="ALDAX">      1.00000000</i>
   <i name="AGGAX">      1.00000000</i>
   <i name="ALDAC">      1.00000000</i>
   <i name="AGGAC">      1.00000000</i>
   <i type="int" name="NKREDX">     1</i>
   <i type="int" name="NKREDY">     1</i>
   <i type="int" name="NKREDZ">     1</i>
   <i type="logical" name="SHIFTRED"> F  </i>
   <i type="logical" name="ODDONLY"> F  </i>
   <i type="logical" name="EVENONLY"> F  </i>
   <i type="int" name="LMAXFOCK">     0</i>
   <i type="int" name="NMAXFOCKAE">     0</i>
   <i type="logical" name="LFOCKAEDFT"> F  </i>
   <i name="HFSCREEN">      0.00000000</i>
   <i name="HFSCREENC">      0.00000000</i>
   <i type="int" name="NBANDSGWLOW">     0</i>
  </separator>
  <separator name="vdW DFT" >
   <i type="logical" name="LUSE_VDW"> F  </i>
   <i name="Zab_VDW">     -0.84910000</i>
   <i name="PARAM1">      0.12340000</i>
   <i name="PARAM2">      1.00000000</i>
   <i name="PARAM3">      0.00000000</i>
  </separator>
  <separator name="model GW" >
   <i type="int" name="MODEL_GW">     0</i>
   <i name="MODEL_EPS0">     12.47812500</i>
   <i name="MODEL_ALPHA">      1.00000000</i>
  </separator>
  <separator name="linear response parameters" >
   <i type="logical" name="LEPSILON"> F  </i>
   <i type="logical" name="LRPA"> F  </i>
   <i type="logical" name="LNABLA"> F  </i>
   <i type="logical" name="LVEL"> F  </i>
   <i type="int" name="KINTER">     0</i>
   <i name="CSHIFT">      0.10000000</i>
   <i name="OMEGAMAX">     -1.00000000</i>
   <i name="DEG_THRESHOLD">      0.00200000</i>
  </separator>
  <separator name="orbital magnetization" >
   <i type="logical" name="NUCIND"> F  </i>
   <v name="MAGPOS">      0.00000000      0.00000000      0.00000000</v>
   <i type="logical" name="LNICSALL"> T  </i>
   <i type="logical" name="ORBITALMAG"> F  </i>
   <i type="logical" name="LMAGBLOCH"> F  </i>
   <i type="logical" name="LCHIMAG"> F  </i>
   <i type="logical" name="LGAUGE"> T  </i>
   <i type="int" name="MAGATOM">     0</i>
   <v name="MAGDIPOL">      0.00000000      0.00000000      0.00000000</v>
   <v name="AVECCONST">      0.00000000      0.00000000      0.00000000</v>
  </separator>
  <separator name="response functions" >
   <i type="logical" name="LADDER"> F  </i>
   <i type="logical" name="LFXC"> F  </i>
   <i type="logical" name="LHARTREE"> T  </i>
   <i type="int" name="IBSE">     0</i>
   <v type="int" name="KPOINT">    -1     0     0     0</v>
   <i type="logical" name="LTCTE"> F  </i>
   <i type="logical" name="LTETE"> F  </i>
   <i type="logical" name="LTRIPLET"> F  </i>
   <i type="logical" name="LFXCEPS"> F  </i>
   <i type="logical" name="LFXHEG"> F  </i>
   <i type="int" name="NATURALO">     0</i>
   <i type="logical" name="L2ORDER"> F  </i>
   <i type="logical" name="LUSEW"> F  </i>
   <i name="ENCUTGW">     -2.00000000</i>
   <i name="ENCUTGWSOFT">     -2.00000000</i>
   <i name="ENCUTLF">     -1.00000000</i>
   <i type="int" name="LMAXMP2">    -1</i>
   <i name="SCISSOR">      0.00000000</i>
   <i type="int" name="NOMEGA">     0</i>
   <i type="int" name="NOMEGAR">     0</i>
   <i type="int" name="NBANDSGW">    -1</i>
   <i type="int" name="NBANDSO">    -1</i>
   <i type="int" name="NBANDSV">    -1</i>
   <i type="int" name="NELM">    60</i>
   <i type="int" name="NELMHF">     1</i>
   <i type="int" name="DIM">     3</i>
   <i type="int" name="ANTIRES">     0</i>
   <i name="OMEGAMAX">    -30.00000000</i>
   <i name="OMEGAMIN">    -30.00000000</i>
   <i name="OMEGATL">   -200.00000000</i>
   <i type="int" name="OMEGAGRID">     0</i>
   <i name="CSHIFT">     -0.10000000</i>
   <i type="logical" name="SELFENERGY"> F  </i>
   <i type="logical" name="LSPECTRAL"> F  </i>
   <i type="logical" name="LSPECTRALGW"> F  </i>
   <i type="logical" name="LSINGLES"> F  </i>
   <i type="logical" name="LFERMIGW"> F  </i>
   <i type="logical" name="ODDONLYGW"> F  </i>
   <i type="logical" name="EVENONLYGW"> F  </i>
   <i type="int" name="NKREDLFX">     1</i>
   <i type="int" name="NKREDLFY">     1</i>
   <i type="int" name="NKREDLFZ">     1</i>
   <i type="int" name="MAXMEM">  1800</i>
   <i type="int" name="TELESCOPE">     0</i>
   <i type="int" name="TAUPAR">     1</i>
   <i type="int" name="OMEGAPAR">    -1</i>
   <i name="LAMBDA">      1.00000000</i>
  </separator>
  <separator name="External order field" >
   <i name="OFIELD_KAPPA">      0.00000000</i>
   <v name="OFIELD_K">      0.00000000      0.00000000      0.00000000</v>
   <i name="OFIELD_Q6_NEAR">      0.00000000</i>
   <i name="OFIELD_Q6_FAR">      0.00000000</i>
   <i name="OFIELD_A">      0.00000000</i>
  </separator>
 </parameters>
 <atominfo>
  <atoms>       2 </atoms>
  <types>       1 </types>
  <array name="atoms" >
   <dimension dim="1">ion</dimension>
   <field type="string">element</field>
   <field type="int">atomtype</field>
   <set>
    <rc><c>Si</c><c>   1</c></rc>
    <rc><c>Si</c><c>   1</c></rc>
   </set>
  </array>
  <array name="atomtypes" >
   <dimension dim="1">type</dimension>
   <field type="int">atomspertype</field>
   <field type="string">element</field>
   <field>mass</field>
   <field>valence</field>
   <field type="string">pseudopotential</field>
   <set>
    <rc><c>   2</c><c>Si</c><c>     28.08500000</c><c>      4.00000000</c><c>  PAW_PBE Si 05Jan2001                  </c></rc>
   </set>
  </array>
 </atominfo>
 <structure name="initialpos" >
  <crystal>
   <varray name="basis" >
    <v>       0.00000000       2.75000000       2.75000000 </v>
    <v>       2.75000000       0.00000000       2.75000000 </v>
    <v>       2.75000000       2.75000000       0.00000000 </v>
   </varray>
   <i name="volume">     41.59375000 </i>
   <varray name="rec_basis" >
    <v>      -0.18181818       0.18181818       0.18181818 </v>
    <v>       0.18181818      -0.18181818       0.18181818 </v>
    <v>       0.18181818       0.18181818      -0.18181818 </v>
   </varray>
  </crystal>
  <varray name="positions" >
   <v>       0.87500000       0.87500000       0.87500000 </v>
   <v>       0.12500000       0.12500000       0.12500000 </v>
  </varray>
 </structure>
 <calculation>
  <scstep>
   <time name="dav">    0.10    0.10</time>
   <time name="total">    0.11    0.11</time>
   <energy>
    <i name="alphaZ">      3.23732588 </i>
    <i name="ewald">   -225.65453461 </i>
    <i name="hartreedc">    -11.58535014 </i>
    <i name="XCdc">    -18.75122067 </i>
    <i name="pawpsdc">    176.24759923 </i>
    <i name="pawaedc">   -141.06103558 </i>
    <i name="eentropy">     -0.00079688 </i>
    <i name="bandstr">      6.81626821 </i>
    <i name="atom">    206.12155316 </i>
    <i name="e_fr_energy">     -4.63019140 </i>
    <i name="e_wo_entrp">     -4.62939452 </i>
    <i name="e_0_energy">     -4.62979296 </i>
   </energy>
  </scstep>
  <scstep>
   <time name="dav">    0.14    0.14</time>
   <time name="total">    0.14    0.16</time>
   <energy>
    <i name="e_fr_energy">    -10.93588620 </i>
    <i name="e_wo_entrp">    -10.93588620 </i>
    <i name="e_0_energy">    -10.93588620 </i>
   </energy>
  </scstep>
  <scstep>
   <time name="dav">    0.10    0.10</time>
   <time name="total">    0.11    0.12</time>
   <energy>
    <i name="e_fr_energy">    -10.98063198 </i>
    <i name="e_wo_entrp">    -10.98063198 </i>
    <i name="e_0_energy">    -10.98063198 </i>
   </energy>
  </scstep>
  <scstep>
   <time name="dav">    0.12    0.12</time>
   <time name="total">    0.13    0.19</time>
   <energy>
    <i name="e_fr_energy">    -10.87233023 </i>
    <i name="e_wo_entrp">    -10.87233023 </i>
    <i name="e_0_energy">    -10.87233023 </i>
   </energy>
  </scstep>
  <scstep>
   <time name="dav">    0.11    0.11</time>
   <time name="total">    0.12    0.13</time>
   <energy>
    <i name="e_fr_energy">    -10.82178537 </i>
    <i name="e_wo_entrp">    -10.82178536 </i>
    <i name="e_0_energy">    -10.82178536 </i>
   </energy>
  </scstep>
  <scstep>
   <time name="dav">    0.10    0.10</time>
   <time name="total">    0.11    0.11</time>
   <energy>
    <i name="e_fr_energy">    -10.82284638 </i>
    <i name="e_wo_entrp">    -10.82284638 </i>
    <i name="e_0_energy">    -10.82284638 </i>
   </energy>
  </scstep>
  <scstep>
   <time name="dav">    0.13    0.13</time>
   <time name="total">    0.14    0.14</time>
   <energy>
    <i name="e_fr_energy">    -10.82306270 </i>
    <i name="e_wo_entrp">    -10.82306270 </i>
    <i name="e_0_energy">    -10.82306270 </i>
   </energy>
  </scstep>
  <scstep>
   <time name="dav">    0.07    0.07</time>
   <time name="total">    0.07    0.08</time>
   <energy>
    <i name="alphaZ">      3.23732588 </i>
    <i name="ewald">   -225.65453461 </i>
    <i name="hartreedc">    -15.36575064 </i>
    <i name="XCdc">    -18.12818446 </i>
    <i name="pawpsdc">    966.17917645 </i>
    <i name="pawaedc">   -931.19150328 </i>
    <i name="eentropy">     -0.00000000 </i>
    <i name="bandstr">      3.97883925 </i>
    <i name="atom">    206.12155316 </i>
    <i name="e_fr_energy">    -10.82307827 </i>
    <i name="e_wo_entrp">    -10.82307827 </i>
    <i name="e_0_energy">    -10.82307827 </i>
   </energy>
  </scstep>
  <structure>
   <crystal>
    <varray name="basis" >
     <v>       0.00000000       2.75000000       2.75000000 </v>
     <v>       2.75000000       0.00000000       2.75000000 </v>
     <v>       2.75000000       2.75000000       0.00000000 </v>
    </varray>
    <i name="volume">     41.59375000 </i>
    <varray name="rec_basis" >
     <v>      -0.18181818       0.18181818       0.18181818 </v>
     <v>       0.18181818      -0.18181818       0.18181818 </v>
     <v>       0.18181818       0.18181818      -0.18181818 </v>
    </varray>
   </crystal>
   <varray name="positions" >
    <v>       0.87500000       0.87500000       0.87500000 </v>
    <v>       0.12500000       0.12500000       0.12500000 </v>
   </varray>
  </structure>
  <varray name="forces" >
   <v>      -0.00000000       0.00000000      -0.00000000 </v>
   <v>       0.00000000      -0.00000000       0.00000000 </v>
  </varray>
  <varray name="stress" >
   <v>     -16.42559023      -0.00000000       0.00000000 </v>
   <v>       0.00000000     -16.42559023      -0.00000000 </v>
   <v>       0.00000000       0.00000000     -16.42559023 </v>
  </varray>
  <energy>
   <i name="e_fr_energy">    -10.82307827 </i>
   <i name="e_wo_entrp">    -10.82307827 </i>
   <i name="e_0_energy">     -0.00000000 </i>
  </energy>
  <time name="totalsc">    1.04    1.16</time>
 </calculation>
 <calculation>
  <scstep>
   <time name="dav">    0.10    0.11</time>
   <time name="total">    0.11    0.11</time>
   <energy>
    <i name="alphaZ">      3.44562842 </i>
    <i name="ewald">   -230.39412792 </i>
    <i name="hartreedc">    -15.68935101 </i>
    <i name="XCdc">    -17.82704474 </i>
    <i name="pawpsdc">    966.12671748 </i>
    <i name="pawaedc">   -931.13856041 </i>
    <i name="eentropy">     -0.00000206 </i>
    <i name="bandstr">      8.52815050 </i>
    <i name="atom">    206.12155316 </i>
    <i name="e_fr_energy">    -10.82703658 </i>
    <i name="e_wo_entrp">    -10.82703452 </i>
    <i name="e_0_energy">    -10.82703555 </i>
   </energy>
  </scstep>
  <scstep>
   <time name="dav">    0.10    0.10</time>
   <time name="total">    0.10    0.11</time>
   <energy>
    <i name="e_fr_energy">    -10.82724060 </i>
    <i name="e_wo_entrp">    -10.82723853 </i>
    <i name="e_0_energy">    -10.82723956 </i>
   </energy>
  </scstep>
  <scstep>
   <time name="dav">    0.18    0.18</time>
   <time name="total">    0.18    0.19</time>
   <energy>
    <i name="e_fr_energy">    -10.82724118 </i>
    <i name="e_wo_entrp">    -10.82723912 </i>
    <i name="e_0_energy">    -10.82724015 </i>
   </energy>
  </scstep>
  <scstep>
   <time name="dav">    0.10    0.10</time>
   <time name="total">    0.11    0.11</time>
   <energy>
    <i name="e_fr_energy">    -10.81259435 </i>
    <i name="e_wo_entrp">    -10.81259367 </i>
    <i name="e_0_energy">    -10.81259401 </i>
   </energy>
  </scstep>
  <scstep>
   <time name="dav">    0.11    0.11</time>
   <time name="total">    0.12    0.12</time>
   <energy>
    <i name="e_fr_energy">    -10.80536962 </i>
    <i name="e_wo_entrp">    -10.80536946 </i>
    <i name="e_0_energy">    -10.80536954 </i>
   </energy>
  </scstep>
  <scstep>
   <time name="dav">    0.10    0.10</time>
   <time name="total">    0.11    0.11</time>
   <energy>
    <i name="alphaZ">      3.44562842 </i>
    <i name="ewald">   -230.39412792 </i>
    <i name="hartreedc">    -14.63838264 </i>
    <i name="XCdc">    -17.84091005 </i>
    <i name="pawpsdc">   1069.23540923 </i>
    <i name="pawaedc">  -1034.30496410 </i>
    <i name="eentropy">     -0.00000016 </i>
    <i name="bandstr">      7.57046452 </i>
    <i name="atom">    206.12155316 </i>
    <i name="e_fr_energy">    -10.80532954 </i>
    <i name="e_wo_entrp">    -10.80532938 </i>
    <i name="e_0_energy">    -10.80532946 </i>
   </energy>
  </scstep>
  <structure>
   <crystal>
    <varray name="basis" >
     <v>       0.00000000       2.69342789       2.69342789 </v>
     <v>       2.69342789       0.00000000       2.69342789 </v>
     <v>       2.69342789       2.69342789      -0.00000000 </v>
    </varray>
    <i name="volume">     39.07923513 </i>
    <varray name="rec_basis" >
     <v>      -0.18563705       0.18563705       0.18563705 </v>
     <v>       0.18563705      -0.18563705       0.18563705 </v>
     <v>       0.18563705       0.18563705      -0.18563705 </v>
    </varray>
   </crystal>
   <varray name="positions" >
    <v>       0.87500000       0.87500000       0.87500000 </v>
    <v>       0.12500000       0.12500000       0.12500000 </v>
   </varray>
  </structure>
  <varray name="forces" >
   <v>      -0.00000000       0.00000000       0.00000000 </v>
   <v>       0.00000000      -0.00000000      -0.00000000 </v>
  </varray>
  <varray name="stress" >
   <v>      42.06718879       0.00000000      -0.00000000 </v>
   <v>       0.00000000      42.06718879       0.00000000 </v>
   <v>      -0.00000000      -0.00000000      42.06718879 </v>
  </varray>
  <energy>
   <i name="e_fr_energy">    -10.80532954 </i>
   <i name="e_wo_entrp">    -10.80532946 </i>
   <i name="e_0_energy">     -0.00000016 </i>
  </energy>
  <time name="totalsc">    0.77    0.80</time>
 </calculation>
 <calculation>
  <scstep>
   <time name="dav">    0.10    0.10</time>
   <time name="total">    0.11    0.11</time>
   <energy>
    <i name="alphaZ">      3.29888702 </i>
    <i name="ewald">   -227.07591507 </i>
    <i name="hartreedc">    -14.41764168 </i>
    <i name="XCdc">    -18.05671297 </i>
    <i name="pawpsdc">   1074.77655447 </i>
    <i name="pawaedc">  -1039.84371824 </i>
    <i name="eentropy">     -0.00000000 </i>
    <i name="bandstr">      4.35927947 </i>
    <i name="atom">    206.12155316 </i>
    <i name="e_fr_energy">    -10.83771385 </i>
    <i name="e_wo_entrp">    -10.83771385 </i>
    <i name="e_0_energy">    -10.83771385 </i>
   </energy>
  </scstep>
  <scstep>
   <time name="dav">    0.10    0.10</time>
   <time name="total">    0.10    0.10</time>
   <energy>
    <i name="e_fr_energy">    -10.83782440 </i>
    <i name="e_wo_entrp">    -10.83782440 </i>
    <i name="e_0_energy">    -10.83782440 </i>
   </energy>
  </scstep>
  <scstep>
   <time name="dav">    0.12    0.12</time>
   <time name="total">    0.12    0.13</time>
   <energy>
    <i name="e_fr_energy">    -10.83782475 </i>
    <i name="e_wo_entrp">    -10.83782474 </i>
    <i name="e_0_energy">    -10.83782475 </i>
   </energy>
  </scstep>
  <scstep>
   <time name="dav">    0.09    0.09</time>
   <time name="total">    0.10    0.11</time>
   <energy>
    <i name="e_fr_energy">    -10.83074304 </i>
    <i name="e_wo_entrp">    -10.83074304 </i>
    <i name="e_0_energy">    -10.83074304 </i>
   </energy>
  </scstep>
  <scstep>
   <time name="dav">    0.11    0.11</time>
   <time name="total">    0.12    0.12</time>
   <energy>
    <i name="e_fr_energy">    -10.82725455 </i>
    <i name="e_wo_entrp">    -10.82725454 </i>
    <i name="e_0_energy">    -10.82725454 </i>
   </energy>
  </scstep>
  <scstep>
   <time name="dav">    0.08    0.08</time>
   <time name="total">    0.09    0.09</time>
   <energy>
    <i name="alphaZ">      3.29888702 </i>
    <i name="ewald">   -227.07591507 </i>
    <i name="hartreedc">    -15.13317547 </i>
    <i name="XCdc">    -18.04463960 </i>
    <i name="pawpsdc">   1000.29837091 </i>
    <i name="pawaedc">   -965.32328303 </i>
    <i name="eentropy">     -0.00000001 </i>
    <i name="bandstr">      5.03098433 </i>
    <i name="atom">    206.12155316 </i>
    <i name="e_fr_energy">    -10.82721776 </i>
    <i name="e_wo_entrp">    -10.82721775 </i>
    <i name="e_0_energy">    -10.82721776 </i>
   </energy>
  </scstep>
  <structure>
   <crystal>
    <varray name="basis" >
     <v>       0.00000000       2.73278639       2.73278639 </v>
     <v>       2.73278639       0.00000000       2.73278639 </v>
     <v>       2.73278639       2.73278639      -0.00000000 </v>
    </varray>
    <i name="volume">     40.81756133 </i>
    <varray name="rec_basis" >
     <v>      -0.18296344       0.18296344       0.18296344 </v>
     <v>       0.18296344      -0.18296344       0.18296344 </v>
     <v>       0.18296344       0.18296344      -0.18296344 </v>
    </varray>
   </crystal>
   <varray name="positions" >
    <v>       0.87500000       0.87500000       0.87500000 </v>
    <v>       0.12500000       0.12500000       0.12500000 </v>
   </varray>
  </structure>
  <varray name="forces" >
   <v>      -0.00000000      -0.00000000      -0.00000000 </v>
   <v>       0.00000000       0.00000000       0.00000000 </v>
  </varray>
  <varray name="stress" >
   <v>      -0.08505762       0.00000000       0.00000000 </v>
   <v>       0.00000000      -0.08505762      -0.00000000 </v>
   <v>      -0.00000000      -0.00000000      -0.08505762 </v>
  </varray>
  <energy>
   <i name="e_fr_energy">    -10.82721776 </i>
   <i name="e_wo_entrp">    -10.82721776 </i>
   <i name="e_0_energy">     -0.00000001 </i>
  </energy>
  <time name="totalsc">    0.68    0.97</time>
  <eigenvalues>
   <array>
    <dimension dim="1">band</dimension>
    <dimension dim="2">kpoint</dimension>
    <dimension dim="3">spin</dimension>
    <field>eigene</field>
    <field>occ</field>
    <set>
     <set comment="spin 1">
      <set comment="kpoint 1">
       <r>   -6.1944    1.0000 </r>
       <r>    5.6435    1.0000 </r>
       <r>    5.6435    1.0000 </r>
       <r>    5.6435    1.0000 </r>
       <r>    8.2040    0.0000 </r>
       <r>    8.2040    0.0000 </r>
       <r>    8.2040    0.0000 </r>
       <r>    8.7853    0.0000 </r>
       <r>   13.4236    0.0000 </r>
       <r>   13.4236    0.0000 </r>
      </set>
      <set comment="kpoint 2">
       <r>   -6.0879    1.0000 </r>
       <r>    4.6564    1.0000 </r>
       <r>    5.4794    1.0000 </r>
       <r>    5.4794    1.0000 </r>
       <r>    8.1958    0.0000 </r>
       <r>    8.4474    0.0000 </r>
       <r>    8.4474    0.0000 </r>
       <r>    9.6081    0.0000 </r>
       <r>   13.1137    0.0000 </r>
       <r>   13.1137    0.0000 </r>
      </set>
      <set comment="kpoint 3">
       <r>   -5.7727    1.0000 </r>
       <r>    2.9907    1.0000 </r>
       <r>    5.1412    1.0000 </r>
       <r>    5.1413    1.0000 </r>
       <r>    7.8746    0.0000 </r>
       <r>    8.9170    0.0000 </r>
       <r>    8.9170    0.0000 </r>
       <r>   11.2057    0.0000 </r>
       <r>   12.7535    0.0000 </r>
       <r>   12.7535    0.0000 </r>
      </set>
      <set comment="kpoint 4">
       <r>   -5.2652    1.0000 </r>
       <r>    1.3499    1.0000 </r>
       <r>    4.8197    1.0000 </r>
       <r>    4.8197    1.0000 </r>
       <r>    7.5304    0.0000 </r>
       <r>    9.1722    0.0000 </r>
       <r>    9.1722    0.0000 </r>
       <r>   12.7753    0.0000 </r>
       <r>   13.0201    0.0000 </r>
       <r>   13.0202    0.0000 </r>
      </set>
      <set comment="kpoint 5">
       <r>   -4.6170    1.0000 </r>
       <r>   -0.0869    1.0000 </r>
       <r>    4.5895    1.0000 </r>
       <r>    4.5895    1.0000 </r>
       <r>    7.2708    0.0000 </r>
       <r>    9.1238    0.0000 </r>
       <r>    9.1238    0.0000 </r>
       <r>   13.4894    0.0000 </r>
       <r>   14.0639    0.0000 </r>
       <r>   14.0639    0.0000 </r>
      </set>
      <set comment="kpoint 6">
       <r>   -4.0202    1.0000 </r>
       <r>   -1.0846    1.0000 </r>
       <r>    4.4719    1.0000 </r>
       <r>    4.4719    1.0000 </r>
       <r>    7.1346    0.0000 </r>
       <r>    9.0221    0.0000 </r>
       <r>    9.0221    0.0000 </r>
       <r>   13.3713    0.0000 </r>
       <r>   15.5918    0.0000 </r>
       <r>   15.5918    0.0000 </r>
      </set>
      <set comment="kpoint 7">
       <r>   -6.0522    1.0000 </r>
       <r>    4.8243    1.0000 </r>
       <r>    5.1590    1.0000 </r>
       <r>    5.1590    1.0000 </r>
       <r>    7.8889    0.0000 </r>
       <r>    8.8652    0.0000 </r>
       <r>    8.8652    0.0000 </r>
       <r>    9.5356    0.0000 </r>
       <r>   12.5515    0.0000 </r>
       <r>   13.5822    0.0000 </r>
      </set>
      <set comment="kpoint 8">
       <r>   -5.8058    1.0000 </r>
       <r>    3.4788    1.0000 </r>
       <r>    4.7660    1.0000 </r>
       <r>    4.9410    1.0000 </r>
       <r>    7.9227    0.0000 </r>
       <r>    8.8904    0.0000 </r>
       <r>    9.4514    0.0000 </r>
       <r>   10.5234    0.0000 </r>
       <r>   12.2757    0.0000 </r>
       <r>   13.5339    0.0000 </r>
      </set>
      <set comment="kpoint 9">
       <r>   -5.3598    1.0000 </r>
       <r>    1.8766    1.0000 </r>
       <r>    4.4496    1.0000 </r>
       <r>    4.5706    1.0000 </r>
       <r>    8.0324    0.0000 </r>
       <r>    8.8978    0.0000 </r>
       <r>    9.8080    0.0000 </r>
       <r>   10.9952    0.0000 </r>
       <r>   13.3167    0.0000 </r>
       <r>   13.7098    0.0000 </r>
      </set>
      <set comment="kpoint 10">
       <r>   -4.7487    1.0000 </r>
       <r>    0.3880    1.0000 </r>
       <r>    4.1920    1.0000 </r>
       <r>    4.2635    1.0000 </r>
       <r>    7.8689    0.0000 </r>
       <r>    8.9558    0.0000 </r>
       <r>    9.7498    0.0000 </r>
       <r>   11.7606    0.0000 </r>
       <r>   14.4933    0.0000 </r>
       <r>   14.6039    0.0000 </r>
      </set>
      <set comment="kpoint 11">
       <r>   -4.0925    1.0000 </r>
       <r>   -0.7863    1.0000 </r>
       <r>    3.8974    1.0000 </r>
       <r>    4.2225    1.0000 </r>
       <r>    7.7258    0.0000 </r>
       <r>    8.9259    0.0000 </r>
       <r>    9.5222    0.0000 </r>
       <r>   12.9867    0.0000 </r>
       <r>   14.4090    0.0000 </r>
       <r>   16.0347    0.0000 </r>
      </set>
      <set comment="kpoint 12">
       <r>   -3.8295    1.0000 </r>
       <r>   -1.1796    1.0000 </r>
       <r>    3.7224    1.0000 </r>
       <r>    4.3211    1.0000 </r>
       <r>    7.6947    0.0000 </r>
       <r>    8.9856    0.0000 </r>
       <r>    9.3384    0.0000 </r>
       <r>   13.6785    0.0000 </r>
       <r>   14.9665    0.0000 </r>
       <r>   15.3004    0.0000 </r>
      </set>
      <set comment="kpoint 13">
       <r>   -4.3016    1.0000 </r>
       <r>   -0.4450    1.0000 </r>
       <r>    3.6886    1.0000 </r>
       <r>    4.5452    1.0000 </r>
       <r>    7.7945    0.0000 </r>
       <r>    9.1742    0.0000 </r>
       <r>    9.2572    0.0000 </r>
       <r>   13.3616    0.0000 </r>
       <r>   13.6630    0.0000 </r>
       <r>   14.8038    0.0000 </r>
      </set>
      <set comment="kpoint 14">
       <r>   -4.9681    1.0000 </r>
       <r>    0.8643    1.0000 </r>
       <r>    3.8108    1.0000 </r>
       <r>    4.8657    1.0000 </r>
       <r>    8.0094    0.0000 </r>
       <r>    9.1826    0.0000 </r>
       <r>    9.3793    0.0000 </r>
       <r>   12.3040    0.0000 </r>
       <r>   12.4897    0.0000 </r>
       <r>   14.9622    0.0000 </r>
      </set>
      <set comment="kpoint 15">
       <r>   -5.5304    1.0000 </r>
       <r>    2.3947    1.0000 </r>
       <r>    4.1071    1.0000 </r>
       <r>    5.2266    1.0000 </r>
       <r>    8.3037    0.0000 </r>
       <r>    8.8956    0.0000 </r>
       <r>    9.2459    0.0000 </r>
       <r>   11.4065    0.0000 </r>
       <r>   12.0769    0.0000 </r>
       <r>   13.8205    0.0000 </r>
      </set>
      <set comment="kpoint 16">
       <r>   -5.9115    1.0000 </r>
       <r>    3.8514    1.0000 </r>
       <r>    4.6675    1.0000 </r>
       <r>    5.4999    1.0000 </r>
       <r>    8.4976    0.0000 </r>
       <r>    8.5362    0.0000 </r>
       <r>    8.6620    0.0000 </r>
       <r>   10.5010    0.0000 </r>
       <r>   12.4219    0.0000 </r>
       <r>   13.2688    0.0000 </r>
      </set>
      <set comment="kpoint 17">
       <r>   -5.6283    1.0000 </r>
       <r>    3.3222    1.0000 </r>
       <r>    4.3373    1.0000 </r>
       <r>    4.3373    1.0000 </r>
       <r>    7.2498    0.0000 </r>
       <r>    9.7297    0.0000 </r>
       <r>   10.2002    0.0000 </r>
       <r>   10.2002    0.0000 </r>
       <r>   12.3495    0.0000 </r>
       <r>   14.0530    0.0000 </r>
      </set>
      <set comment="kpoint 18">
       <r>   -5.2474    1.0000 </r>
       <r>    2.1783    1.0000 </r>
       <r>    3.9213    1.0000 </r>
       <r>    3.9978    1.0000 </r>
       <r>    7.3024    0.0000 </r>
       <r>    9.3358    0.0000 </r>
       <r>   10.4871    0.0000 </r>
       <r>   10.7822    0.0000 </r>
       <r>   13.5388    0.0000 </r>
       <r>   14.3639    0.0000 </r>
      </set>
      <set comment="kpoint 19">
       <r>   -4.6857    1.0000 </r>
       <r>    0.8255    1.0000 </r>
       <r>    3.3936    1.0000 </r>
       <r>    3.8028    1.0000 </r>
       <r>    7.5386    0.0000 </r>
       <r>    9.6930    0.0000 </r>
       <r>   10.2881    0.0000 </r>
       <r>   10.8715    0.0000 </r>
       <r>   15.1688    0.0000 </r>
       <r>   15.2618    0.0000 </r>
      </set>
      <set comment="kpoint 20">
       <r>   -4.0180    1.0000 </r>
       <r>   -0.3929    1.0000 </r>
       <r>    2.9223    1.0000 </r>
       <r>    3.7698    1.0000 </r>
       <r>    7.5794    0.0000 </r>
       <r>   10.0535    0.0000 </r>
       <r>   10.6260    0.0000 </r>
       <r>   10.9042    0.0000 </r>
       <r>   15.5272    0.0000 </r>
       <r>   16.5174    0.0000 </r>
      </set>
      <set comment="kpoint 21">
       <r>   -3.5467    1.0000 </r>
       <r>   -1.0891    1.0000 </r>
       <r>    2.5911    1.0000 </r>
       <r>    3.8979    1.0000 </r>
       <r>    7.6744    0.0000 </r>
       <r>    9.9278    0.0000 </r>
       <r>   10.3367    0.0000 </r>
       <r>   12.5151    0.0000 </r>
       <r>   14.6868    0.0000 </r>
       <r>   15.1680    0.0000 </r>
      </set>
      <set comment="kpoint 22">
       <r>   -3.8252    1.0000 </r>
       <r>   -0.6858    1.0000 </r>
       <r>    2.4418    1.0000 </r>
       <r>    4.1720    1.0000 </r>
       <r>    7.9189    0.0000 </r>
       <r>    9.9237    0.0000 </r>
       <r>   10.1102    0.0000 </r>
       <r>   13.3225    0.0000 </r>
       <r>   13.4531    0.0000 </r>
       <r>   14.2644    0.0000 </r>
      </set>
      <set comment="kpoint 23">
       <r>   -4.4840    1.0000 </r>
       <r>    0.4125    1.0000 </r>
       <r>    2.5257    1.0000 </r>
       <r>    4.5539    1.0000 </r>
       <r>    8.2757    0.0000 </r>
       <r>    9.8606    0.0000 </r>
       <r>    9.9800    0.0000 </r>
       <r>   11.9330    0.0000 </r>
       <r>   12.2164    0.0000 </r>
       <r>   15.6940    0.0000 </r>
      </set>
      <set comment="kpoint 24">
       <r>   -5.0900    1.0000 </r>
       <r>    1.5879    1.0000 </r>
       <r>    3.0065    1.0000 </r>
       <r>    4.9624    1.0000 </r>
       <r>    8.5895    0.0000 </r>
       <r>    9.3719    0.0000 </r>
       <r>    9.6713    0.0000 </r>
       <r>   11.2604    0.0000 </r>
       <r>   11.7839    0.0000 </r>
       <r>   15.5568    0.0000 </r>
      </set>
      <set comment="kpoint 25">
       <r>   -4.9310    1.0000 </r>
       <r>    1.7141    1.0000 </r>
       <r>    3.6248    1.0000 </r>
       <r>    3.6248    1.0000 </r>
       <r>    6.6685    0.0000 </r>
       <r>    8.4647    0.0000 </r>
       <r>   11.7525    0.0000 </r>
       <r>   11.7525    0.0000 </r>
       <r>   14.0072    0.0000 </r>
       <r>   14.8349    0.0000 </r>
      </set>
      <set comment="kpoint 26">
       <r>   -4.4255    1.0000 </r>
       <r>    0.7711    1.0000 </r>
       <r>    3.0959    1.0000 </r>
       <r>    3.3957    1.0000 </r>
       <r>    6.8021    0.0000 </r>
       <r>    8.1790    0.0000 </r>
       <r>   12.0348    0.0000 </r>
       <r>   12.2212    0.0000 </r>
       <r>   15.4599    0.0000 </r>
       <r>   15.5792    0.0000 </r>
      </set>
      <set comment="kpoint 27">
       <r>   -3.7771    1.0000 </r>
       <r>   -0.2435    1.0000 </r>
       <r>    2.3802    1.0000 </r>
       <r>    3.3344    1.0000 </r>
       <r>    7.0045    0.0000 </r>
       <r>    8.9192    0.0000 </r>
       <r>   11.8689    0.0000 </r>
       <r>   12.0932    0.0000 </r>
       <r>   16.6168    0.0000 </r>
       <r>   16.9368    0.0000 </r>
      </set>
      <set comment="kpoint 28">
       <r>   -3.1756    1.0000 </r>
       <r>   -1.0311    1.0000 </r>
       <r>    1.8155    1.0000 </r>
       <r>    3.4443    1.0000 </r>
       <r>    7.1367    0.0000 </r>
       <r>   10.3857    0.0000 </r>
       <r>   11.6950    0.0000 </r>
       <r>   11.7684    0.0000 </r>
       <r>   15.0710    0.0000 </r>
       <r>   15.2143    0.0000 </r>
      </set>
      <set comment="kpoint 29">
       <r>   -3.2314    1.0000 </r>
       <r>   -0.9526    1.0000 </r>
       <r>    1.5360    1.0000 </r>
       <r>    3.7147    1.0000 </r>
       <r>    7.4213    0.0000 </r>
       <r>   11.4129    0.0000 </r>
       <r>   11.4427    0.0000 </r>
       <r>   12.3143    0.0000 </r>
       <r>   13.3619    0.0000 </r>
       <r>   13.4752    0.0000 </r>
      </set>
      <set comment="kpoint 30">
       <r>   -3.8540    1.0000 </r>
       <r>   -0.2049    1.0000 </r>
       <r>    1.6957    1.0000 </r>
       <r>    4.1115    1.0000 </r>
       <r>    7.8567    0.0000 </r>
       <r>   10.8124    0.0000 </r>
       <r>   11.1747    0.0000 </r>
       <r>   11.9769    0.0000 </r>
       <r>   12.4007    0.0000 </r>
       <r>   14.2829    0.0000 </r>
      </set>
      <set comment="kpoint 31">
       <r>   -3.9757    1.0000 </r>
       <r>    0.1155    1.0000 </r>
       <r>    3.1235    1.0000 </r>
       <r>    3.1235    1.0000 </r>
       <r>    6.3199    0.0000 </r>
       <r>    7.3414    0.0000 </r>
       <r>   13.3988    0.0000 </r>
       <r>   13.3988    0.0000 </r>
       <r>   15.9178    0.0000 </r>
       <r>   15.9366    0.0000 </r>
      </set>
      <set comment="kpoint 32">
       <r>   -3.3637    1.0000 </r>
       <r>   -0.6890    1.0000 </r>
       <r>    2.5999    1.0000 </r>
       <r>    3.0197    1.0000 </r>
       <r>    6.5292    0.0000 </r>
       <r>    7.3507    0.0000 </r>
       <r>   13.7213    0.0000 </r>
       <r>   13.7324    0.0000 </r>
       <r>   17.0667    0.0000 </r>
       <r>   17.0909    0.0000 </r>
      </set>
      <set comment="kpoint 33">
       <r>   -2.7017    1.0000 </r>
       <r>   -1.3959    1.0000 </r>
       <r>    1.8370    1.0000 </r>
       <r>    3.0913    1.0000 </r>
       <r>    6.6986    0.0000 </r>
       <r>    8.5196    0.0000 </r>
       <r>   13.4493    0.0000 </r>
       <r>   13.5823    0.0000 </r>
       <r>   15.3193    0.0000 </r>
       <r>   15.4384    0.0000 </r>
      </set>
      <set comment="kpoint 34">
       <r>   -2.6414    1.0000 </r>
       <r>   -1.4251    1.0000 </r>
       <r>    1.3611    1.0000 </r>
       <r>    3.3323    1.0000 </r>
       <r>    6.9726    0.0000 </r>
       <r>   10.2287    0.0000 </r>
       <r>   12.7692    0.0000 </r>
       <r>   13.3157    0.0000 </r>
       <r>   13.5191    0.0000 </r>
       <r>   13.9485    0.0000 </r>
      </set>
      <set comment="kpoint 35">
       <r>   -2.7883    1.0000 </r>
       <r>   -1.4071    1.0000 </r>
       <r>    2.8681    1.0000 </r>
       <r>    2.8681    1.0000 </r>
       <r>    6.2854    0.0000 </r>
       <r>    6.6130    0.0000 </r>
       <r>   15.0779    0.0000 </r>
       <r>   15.0779    0.0000 </r>
       <r>   17.2025    0.0000 </r>
       <r>   17.2025    0.0000 </r>
      </set>
      <set comment="kpoint 36">
       <r>   -2.1538    1.0000 </r>
       <r>   -2.0417    1.0000 </r>
       <r>    2.4364    1.0000 </r>
       <r>    2.8927    1.0000 </r>
       <r>    6.4668    0.0000 </r>
       <r>    7.0406    0.0000 </r>
       <r>   14.9922    0.0000 </r>
       <r>   15.2146    0.0000 </r>
       <r>   15.8007    0.0000 </r>
       <r>   16.0018    0.0000 </r>
      </set>
      <set comment="kpoint 37">
       <r>   -5.4926    1.0000 </r>
       <r>    2.6212    1.0000 </r>
       <r>    3.8394    1.0000 </r>
       <r>    4.8282    1.0000 </r>
       <r>    7.9820    0.0000 </r>
       <r>    9.2066    0.0000 </r>
       <r>    9.9954    0.0000 </r>
       <r>   10.4212    0.0000 </r>
       <r>   12.6294    0.0000 </r>
       <r>   14.0599    0.0000 </r>
      </set>
      <set comment="kpoint 38">
       <r>   -4.9879    1.0000 </r>
       <r>    1.3182    1.0000 </r>
       <r>    3.2811    1.0000 </r>
       <r>    4.5137    1.0000 </r>
       <r>    8.2896    0.0000 </r>
       <r>    9.1721    0.0000 </r>
       <r>   10.3286    0.0000 </r>
       <r>   10.5418    0.0000 </r>
       <r>   13.1769    0.0000 </r>
       <r>   15.4623    0.0000 </r>
      </set>
      <set comment="kpoint 39">
       <r>   -4.3410    1.0000 </r>
       <r>   -0.0052    1.0000 </r>
       <r>    3.0233    1.0000 </r>
       <r>    4.1756    1.0000 </r>
       <r>    8.3143    0.0000 </r>
       <r>    8.9943    0.0000 </r>
       <r>   10.4232    0.0000 </r>
       <r>   11.3742    0.0000 </r>
       <r>   14.2547    0.0000 </r>
       <r>   15.4220    0.0000 </r>
      </set>
      <set comment="kpoint 40">
       <r>   -3.7394    1.0000 </r>
       <r>   -0.9696    1.0000 </r>
       <r>    2.9226    1.0000 </r>
       <r>    3.9687    1.0000 </r>
       <r>    8.2821    0.0000 </r>
       <r>    8.8048    0.0000 </r>
       <r>   10.3599    0.0000 </r>
       <r>   12.8229    0.0000 </r>
       <r>   14.3491    0.0000 </r>
       <r>   15.5138    0.0000 </r>
      </set>
      <set comment="kpoint 41">
       <r>   -4.8052    1.0000 </r>
       <r>    1.3385    1.0000 </r>
       <r>    3.1330    1.0000 </r>
       <r>    3.8371    1.0000 </r>
       <r>    7.4288    0.0000 </r>
       <r>    8.9564    0.0000 </r>
       <r>   10.5968    0.0000 </r>
       <r>   11.6358    0.0000 </r>
       <r>   14.0890    0.0000 </r>
       <r>   15.5870    0.0000 </r>
      </set>
      <set comment="kpoint 42">
       <r>   -4.1977    1.0000 </r>
       <r>    0.2727    1.0000 </r>
       <r>    2.5640    1.0000 </r>
       <r>    3.5297    1.0000 </r>
       <r>    7.7895    0.0000 </r>
       <r>    9.3665    0.0000 </r>
       <r>   10.2840    0.0000 </r>
       <r>   12.0283    0.0000 </r>
       <r>   14.9536    0.0000 </r>
       <r>   16.2996    0.0000 </r>
      </set>
      <set comment="kpoint 43">
       <r>   -3.5374    1.0000 </r>
       <r>   -0.7196    1.0000 </r>
       <r>    2.1817    1.0000 </r>
       <r>    3.3769    1.0000 </r>
       <r>    7.9227    0.0000 </r>
       <r>    9.9019    0.0000 </r>
       <r>   10.7103    0.0000 </r>
       <r>   11.9843    0.0000 </r>
       <r>   14.6296    0.0000 </r>
       <r>   16.3148    0.0000 </r>
      </set>
      <set comment="kpoint 44">
       <r>   -3.2771    1.0000 </r>
       <r>   -1.0615    1.0000 </r>
       <r>    1.9551    1.0000 </r>
       <r>    3.4650    1.0000 </r>
       <r>    8.1317    0.0000 </r>
       <r>    9.6368    0.0000 </r>
       <r>   11.8686    0.0000 </r>
       <r>   12.3880    0.0000 </r>
       <r>   12.8702    0.0000 </r>
       <r>   15.6250    0.0000 </r>
      </set>
      <set comment="kpoint 45">
       <r>   -3.7727    1.0000 </r>
       <r>   -0.3854    1.0000 </r>
       <r>    1.9473    1.0000 </r>
       <r>    3.7553    1.0000 </r>
       <r>    8.4860    0.0000 </r>
       <r>    9.4493    0.0000 </r>
       <r>   11.1636    0.0000 </r>
       <r>   11.8078    0.0000 </r>
       <r>   14.1027    0.0000 </r>
       <r>   14.3538    0.0000 </r>
      </set>
      <set comment="kpoint 46">
       <r>   -4.4364    1.0000 </r>
       <r>    0.5821    1.0000 </r>
       <r>    2.3219    1.0000 </r>
       <r>    4.1631    1.0000 </r>
       <r>    8.9126    0.0000 </r>
       <r>    9.0344    0.0000 </r>
       <r>   10.2935    0.0000 </r>
       <r>   11.3478    0.0000 </r>
       <r>   13.1813    0.0000 </r>
       <r>   16.0395    0.0000 </r>
      </set>
      <set comment="kpoint 47">
       <r>   -3.8686    1.0000 </r>
       <r>   -0.0195    1.0000 </r>
       <r>    2.6639    1.0000 </r>
       <r>    3.0496    1.0000 </r>
       <r>    7.0793    0.0000 </r>
       <r>    7.9359    0.0000 </r>
       <r>   11.9675    0.0000 </r>
       <r>   13.3694    0.0000 </r>
       <r>   15.7201    0.0000 </r>
       <r>   16.8656    0.0000 </r>
      </set>
      <set comment="kpoint 48">
       <r>   -3.1997    1.0000 </r>
       <r>   -0.8317    1.0000 </r>
       <r>    2.0325    1.0000 </r>
       <r>    2.8744    1.0000 </r>
       <r>    7.4244    0.0000 </r>
       <r>    8.7375    0.0000 </r>
       <r>   11.6186    0.0000 </r>
       <r>   13.7266    0.0000 </r>
       <r>   14.9197    0.0000 </r>
       <r>   16.7913    0.0000 </r>
      </set>
      <set comment="kpoint 49">
       <r>   -2.7408    1.0000 </r>
       <r>   -1.3216    1.0000 </r>
       <r>    1.5205    1.0000 </r>
       <r>    2.9886    1.0000 </r>
       <r>    7.6364    0.0000 </r>
       <r>   10.2968    0.0000 </r>
       <r>   11.3167    0.0000 </r>
       <r>   12.9064    0.0000 </r>
       <r>   13.6885    0.0000 </r>
       <r>   15.7271    0.0000 </r>
      </set>
      <set comment="kpoint 50">
       <r>   -3.1207    1.0000 </r>
       <r>   -0.9261    1.0000 </r>
       <r>    1.4180    1.0000 </r>
       <r>    3.3066    1.0000 </r>
       <r>    8.0026    0.0000 </r>
       <r>   10.7060    0.0000 </r>
       <r>   11.4293    0.0000 </r>
       <r>   12.3175    0.0000 </r>
       <r>   13.1677    0.0000 </r>
       <r>   14.3832    0.0000 </r>
      </set>
      <set comment="kpoint 51">
       <r>   -2.7170    1.0000 </r>
       <r>   -1.4056    1.0000 </r>
       <r>    2.4744    1.0000 </r>
       <r>    2.5948    1.0000 </r>
       <r>    7.0132    0.0000 </r>
       <r>    7.2845    0.0000 </r>
       <r>   13.4868    0.0000 </r>
       <r>   14.8701    0.0000 </r>
       <r>   15.5389    0.0000 </r>
       <r>   16.9530    0.0000 </r>
      </set>
      <set comment="kpoint 52">
       <r>   -2.2221    1.0000 </r>
       <r>   -1.8454    1.0000 </r>
       <r>    1.8286    1.0000 </r>
       <r>    2.6661    1.0000 </r>
       <r>    7.2930    0.0000 </r>
       <r>    8.5304    0.0000 </r>
       <r>   13.0372    0.0000 </r>
       <r>   13.2669    0.0000 </r>
       <r>   15.3116    0.0000 </r>
       <r>   15.9603    0.0000 </r>
      </set>
      <set comment="kpoint 53">
       <r>   -3.5645    1.0000 </r>
       <r>   -0.4077    1.0000 </r>
       <r>    1.9200    1.0000 </r>
       <r>    3.0737    1.0000 </r>
       <r>    8.7201    0.0000 </r>
       <r>    9.3753    0.0000 </r>
       <r>    9.9091    0.0000 </r>
       <r>   13.2728    0.0000 </r>
       <r>   14.5473    0.0000 </r>
       <r>   15.1221    0.0000 </r>
      </set>
      <set comment="kpoint 54">
       <r>   -2.9415    1.0000 </r>
       <r>   -1.0986    1.0000 </r>
       <r>    1.6437    1.0000 </r>
       <r>    2.7593    1.0000 </r>
       <r>    9.0956    0.0000 </r>
       <r>    9.4403    0.0000 </r>
       <r>   10.7019    0.0000 </r>
       <r>   12.5550    0.0000 </r>
       <r>   13.7258    0.0000 </r>
       <r>   16.2546    0.0000 </r>
      </set>
      <set comment="kpoint 55">
       <r>   -2.5358    1.0000 </r>
       <r>   -1.4498    1.0000 </r>
       <r>    1.8724    1.0000 </r>
       <r>    2.2494    1.0000 </r>
       <r>    8.6410    0.0000 </r>
       <r>    8.8513    0.0000 </r>
       <r>   11.2125    0.0000 </r>
       <r>   12.7916    0.0000 </r>
       <r>   15.2264    0.0000 </r>
       <r>   16.6811    0.0000 </r>
      </set>
      <set comment="kpoint 56">
       <r>   -2.3405    1.0000 </r>
       <r>   -1.6117    1.0000 </r>
       <r>    1.5987    1.0000 </r>
       <r>    2.2855    1.0000 </r>
       <r>    8.9899    0.0000 </r>
       <r>   10.2725    0.0000 </r>
       <r>   10.9762    0.0000 </r>
       <r>   10.9884    0.0000 </r>
       <r>   15.2422    0.0000 </r>
       <r>   16.3350    0.0000 </r>
      </set>
     </set>
    </set>
   </array>
  </eigenvalues>
  <separator name="orbital magnetization" >
   <v name="MAGDIPOLOUT">      0.00000000      0.00000000      0.00000000</v>
  </separator>
  <dos>
   <i name="efermi">      5.95860853 </i>
   <total>
    <array>
     <dimension dim="1">gridpoints</dimension>
     <dimension dim="2">spin</dimension>
     <field>energy</field>
     <field>total</field>
     <field>integrated</field>
     <set>
      <set comment="spin 1">
       <r>    -7.3643     0.0000     0.0000 </r>
       <r>    -7.2785     0.0000     0.0000 </r>
       <r>    -7.1927     0.0000     0.0000 </r>
       <r>    -7.1069     0.0000     0.0000 </r>
       <r>    -7.0211     0.0000     0.0000 </r>
       <r>    -6.9353     0.0000     0.0000 </r>
       <r>    -6.8495     0.0000     0.0000 </r>
       <r>    -6.7637     0.0000     0.0000 </r>
       <r>    -6.6780     0.0000     0.0000 </r>
       <r>    -6.5922     0.0000     0.0000 </r>
       <r>    -6.5064     0.0000     0.0000 </r>
       <r>    -6.4206     0.0000     0.0000 </r>
       <r>    -6.3348     0.0004     0.0000 </r>
       <r>    -6.2490     0.0053     0.0005 </r>
       <r>    -6.1632     0.0322     0.0033 </r>
       <r>    -6.0774     0.0969     0.0116 </r>
       <r>    -5.9916     0.1241     0.0222 </r>
       <r>    -5.9059     0.1501     0.0351 </r>
       <r>    -5.8201     0.2553     0.0570 </r>
       <r>    -5.7343     0.2691     0.0801 </r>
       <r>    -5.6485     0.1555     0.0934 </r>
       <r>    -5.5627     0.2354     0.1136 </r>
       <r>    -5.4769     0.4065     0.1485 </r>
       <r>    -5.3911     0.3587     0.1793 </r>
       <r>    -5.3053     0.3423     0.2086 </r>
       <r>    -5.2196     0.3437     0.2381 </r>
       <r>    -5.1338     0.2342     0.2582 </r>
       <r>    -5.0480     0.3274     0.2863 </r>
       <r>    -4.9622     0.6306     0.3404 </r>
       <r>    -4.8764     0.5389     0.3866 </r>
       <r>    -4.7906     0.4138     0.4221 </r>
       <r>    -4.7048     0.4927     0.4644 </r>
       <r>    -4.6190     0.3800     0.4970 </r>
       <r>    -4.5332     0.2890     0.5218 </r>
       <r>    -4.4475     0.5544     0.5693 </r>
       <r>    -4.3617     0.8222     0.6399 </r>
       <r>    -4.2759     0.8031     0.7087 </r>
       <r>    -4.1901     0.6560     0.7650 </r>
       <r>    -4.1043     0.5525     0.8124 </r>
       <r>    -4.0185     0.5057     0.8558 </r>
       <r>    -3.9327     0.4945     0.8982 </r>
       <r>    -3.8469     0.8568     0.9717 </r>
       <r>    -3.7611     1.3809     1.0902 </r>
       <r>    -3.6754     1.0407     1.1795 </r>
       <r>    -3.5896     0.6511     1.2353 </r>
       <r>    -3.5038     0.7887     1.3030 </r>
       <r>    -3.4180     0.5073     1.3465 </r>
       <r>    -3.3322     0.4733     1.3871 </r>
       <r>    -3.2464     0.9051     1.4648 </r>
       <r>    -3.1606     1.1029     1.5594 </r>
       <r>    -3.0748     0.6714     1.6170 </r>
       <r>    -2.9890     0.3508     1.6471 </r>
       <r>    -2.9033     0.4151     1.6827 </r>
       <r>    -2.8175     0.4055     1.7175 </r>
       <r>    -2.7317     0.7096     1.7783 </r>
       <r>    -2.6459     0.7929     1.8464 </r>
       <r>    -2.5601     0.4277     1.8831 </r>
       <r>    -2.4743     0.2413     1.9038 </r>
       <r>    -2.3885     0.1715     1.9185 </r>
       <r>    -2.3027     0.2520     1.9401 </r>
       <r>    -2.2169     0.3136     1.9670 </r>
       <r>    -2.1312     0.2852     1.9915 </r>
       <r>    -2.0454     0.1854     2.0074 </r>
       <r>    -1.9596     0.1201     2.0177 </r>
       <r>    -1.8738     0.1469     2.0303 </r>
       <r>    -1.7880     0.1926     2.0468 </r>
       <r>    -1.7022     0.1183     2.0569 </r>
       <r>    -1.6164     0.1712     2.0716 </r>
       <r>    -1.5306     0.2640     2.0943 </r>
       <r>    -1.4448     0.5416     2.1407 </r>
       <r>    -1.3591     0.9010     2.2180 </r>
       <r>    -1.2733     0.7277     2.2805 </r>
       <r>    -1.1875     0.5351     2.3264 </r>
       <r>    -1.1017     1.0113     2.4131 </r>
       <r>    -1.0159     1.4900     2.5410 </r>
       <r>    -0.9301     1.3125     2.6536 </r>
       <r>    -0.8443     0.9915     2.7386 </r>
       <r>    -0.7585     0.9817     2.8229 </r>
       <r>    -0.6727     0.9858     2.9074 </r>
       <r>    -0.5870     0.5202     2.9521 </r>
       <r>    -0.5012     0.2709     2.9753 </r>
       <r>    -0.4154     0.7203     3.0371 </r>
       <r>    -0.3296     0.9063     3.1148 </r>
       <r>    -0.2438     0.5232     3.1597 </r>
       <r>    -0.1580     0.3327     3.1883 </r>
       <r>    -0.0722     0.3688     3.2199 </r>
       <r>     0.0136     0.6186     3.2730 </r>
       <r>     0.0994     0.4405     3.3108 </r>
       <r>     0.1851     0.2055     3.3284 </r>
       <r>     0.2709     0.3695     3.3601 </r>
       <r>     0.3567     0.5306     3.4056 </r>
       <r>     0.4425     0.4800     3.4468 </r>
       <r>     0.5283     0.2930     3.4719 </r>
       <r>     0.6141     0.2259     3.4913 </r>
       <r>     0.6999     0.1978     3.5083 </r>
       <r>     0.7857     0.3541     3.5387 </r>
       <r>     0.8715     0.5066     3.5821 </r>
       <r>     0.9572     0.2799     3.6061 </r>
       <r>     1.0430     0.0518     3.6106 </r>
       <r>     1.1288     0.0068     3.6112 </r>
       <r>     1.2146     0.0816     3.6182 </r>
       <r>     1.3004     0.4713     3.6586 </r>
       <r>     1.3862     0.8592     3.7323 </r>
       <r>     1.4720     0.7955     3.8005 </r>
       <r>     1.5578     0.9487     3.8819 </r>
       <r>     1.6436     1.0373     3.9709 </r>
       <r>     1.7293     0.7830     4.0381 </r>
       <r>     1.8151     0.8656     4.1124 </r>
       <r>     1.9009     1.4405     4.2359 </r>
       <r>     1.9867     1.5638     4.3701 </r>
       <r>     2.0725     1.0341     4.4588 </r>
       <r>     2.1583     0.7408     4.5224 </r>
       <r>     2.2441     0.9178     4.6011 </r>
       <r>     2.3299     0.9483     4.6825 </r>
       <r>     2.4157     1.0116     4.7692 </r>
       <r>     2.5014     1.1736     4.8699 </r>
       <r>     2.5872     1.5190     5.0002 </r>
       <r>     2.6730     1.5097     5.1297 </r>
       <r>     2.7588     1.0053     5.2160 </r>
       <r>     2.8446     0.9654     5.2988 </r>
       <r>     2.9304     1.5360     5.4306 </r>
       <r>     3.0162     2.0373     5.6054 </r>
       <r>     3.1020     1.9271     5.7707 </r>
       <r>     3.1878     1.1334     5.8679 </r>
       <r>     3.2735     0.8921     5.9444 </r>
       <r>     3.3593     1.5045     6.0735 </r>
       <r>     3.4451     1.7911     6.2272 </r>
       <r>     3.5309     1.4372     6.3505 </r>
       <r>     3.6167     0.8488     6.4233 </r>
       <r>     3.7025     0.9796     6.5073 </r>
       <r>     3.7883     1.6529     6.6491 </r>
       <r>     3.8741     1.8040     6.8039 </r>
       <r>     3.9599     1.4826     6.9311 </r>
       <r>     4.0456     1.0297     7.0194 </r>
       <r>     4.1314     1.0546     7.1099 </r>
       <r>     4.2172     1.4570     7.2349 </r>
       <r>     4.3030     1.1150     7.3305 </r>
       <r>     4.3888     0.6571     7.3869 </r>
       <r>     4.4746     0.8009     7.4556 </r>
       <r>     4.5604     1.2338     7.5615 </r>
       <r>     4.6462     0.9763     7.6452 </r>
       <r>     4.7320     0.5526     7.6926 </r>
       <r>     4.8177     0.6663     7.7498 </r>
       <r>     4.9035     0.7575     7.8148 </r>
       <r>     4.9893     0.5085     7.8584 </r>
       <r>     5.0751     0.2527     7.8801 </r>
       <r>     5.1609     0.2955     7.9054 </r>
       <r>     5.2467     0.3548     7.9359 </r>
       <r>     5.3325     0.1811     7.9514 </r>
       <r>     5.4183     0.1025     7.9602 </r>
       <r>     5.5041     0.2107     7.9783 </r>
       <r>     5.5898     0.1746     7.9932 </r>
       <r>     5.6756     0.0595     7.9984 </r>
       <r>     5.7614     0.0167     7.9998 </r>
       <r>     5.8472     0.0024     8.0000 </r>
       <r>     5.9330     0.0001     8.0000 </r>
       <r>     6.0188     0.0000     8.0000 </r>
       <r>     6.1046     0.0007     8.0001 </r>
       <r>     6.1904     0.0123     8.0011 </r>
       <r>     6.2762     0.0631     8.0065 </r>
       <r>     6.3619     0.1088     8.0159 </r>
       <r>     6.4477     0.1568     8.0293 </r>
       <r>     6.5335     0.2835     8.0536 </r>
       <r>     6.6193     0.3087     8.0801 </r>
       <r>     6.7051     0.3337     8.1087 </r>
       <r>     6.7909     0.3441     8.1383 </r>
       <r>     6.8767     0.2636     8.1609 </r>
       <r>     6.9625     0.3728     8.1929 </r>
       <r>     7.0483     0.7350     8.2559 </r>
       <r>     7.1340     0.7426     8.3196 </r>
       <r>     7.2198     0.6089     8.3719 </r>
       <r>     7.3056     0.9108     8.4500 </r>
       <r>     7.3914     1.2115     8.5539 </r>
       <r>     7.4772     1.1358     8.6514 </r>
       <r>     7.5630     0.9126     8.7297 </r>
       <r>     7.6488     1.0456     8.8194 </r>
       <r>     7.7346     1.2100     8.9232 </r>
       <r>     7.8203     1.3086     9.0354 </r>
       <r>     7.9061     1.6409     9.1762 </r>
       <r>     7.9919     1.7870     9.3295 </r>
       <r>     8.0777     1.2734     9.4388 </r>
       <r>     8.1635     0.9702     9.5220 </r>
       <r>     8.2493     1.3115     9.6345 </r>
       <r>     8.3351     1.6854     9.7791 </r>
       <r>     8.4209     1.1759     9.8800 </r>
       <r>     8.5067     1.1273     9.9767 </r>
       <r>     8.5924     1.1197    10.0727 </r>
       <r>     8.6782     0.9013    10.1501 </r>
       <r>     8.7640     1.1216    10.2463 </r>
       <r>     8.8498     1.6231    10.3855 </r>
       <r>     8.9356     2.4125    10.5925 </r>
       <r>     9.0214     2.4661    10.8040 </r>
       <r>     9.1072     1.8564    10.9633 </r>
       <r>     9.1930     1.7789    11.1159 </r>
       <r>     9.2788     1.6557    11.2580 </r>
       <r>     9.3645     1.7610    11.4090 </r>
       <r>     9.4503     1.9890    11.5797 </r>
       <r>     9.5361     1.3799    11.6980 </r>
       <r>     9.6219     0.8796    11.7735 </r>
       <r>     9.7077     0.9121    11.8518 </r>
       <r>     9.7935     0.8777    11.9270 </r>
       <r>     9.8793     1.1530    12.0260 </r>
       <r>     9.9651     1.4677    12.1519 </r>
       <r>    10.0509     1.0758    12.2442 </r>
       <r>    10.1366     0.6585    12.3007 </r>
       <r>    10.2224     0.9378    12.3811 </r>
       <r>    10.3082     2.1384    12.5646 </r>
       <r>    10.3940     2.5344    12.7820 </r>
       <r>    10.4798     1.8428    12.9401 </r>
       <r>    10.5656     1.4083    13.0609 </r>
       <r>    10.6514     1.2809    13.1708 </r>
       <r>    10.7372     1.3661    13.2880 </r>
       <r>    10.8230     1.0590    13.3788 </r>
       <r>    10.9087     0.7974    13.4472 </r>
       <r>    10.9945     0.8248    13.5180 </r>
       <r>    11.0803     0.6446    13.5733 </r>
       <r>    11.1661     0.6870    13.6322 </r>
       <r>    11.2519     0.9643    13.7149 </r>
       <r>    11.3377     1.2546    13.8226 </r>
       <r>    11.4235     1.5275    13.9536 </r>
       <r>    11.5093     0.9973    14.0392 </r>
       <r>    11.5951     0.6154    14.0920 </r>
       <r>    11.6808     0.8926    14.1686 </r>
       <r>    11.7666     1.2085    14.2722 </r>
       <r>    11.8524     1.4869    14.3998 </r>
       <r>    11.9382     1.5356    14.5315 </r>
       <r>    12.0240     1.6609    14.6740 </r>
       <r>    12.1098     1.3310    14.7882 </r>
       <r>    12.1956     0.8335    14.8597 </r>
       <r>    12.2814     1.0419    14.9491 </r>
       <r>    12.3672     1.3064    15.0612 </r>
       <r>    12.4529     1.1422    15.1591 </r>
       <r>    12.5387     1.0118    15.2459 </r>
       <r>    12.6245     0.8326    15.3174 </r>
       <r>    12.7103     0.5780    15.3669 </r>
       <r>    12.7961     0.9274    15.4465 </r>
       <r>    12.8819     1.3583    15.5630 </r>
       <r>    12.9677     1.1526    15.6619 </r>
       <r>    13.0535     0.8421    15.7342 </r>
       <r>    13.1393     0.9068    15.8119 </r>
       <r>    13.2250     1.2652    15.9205 </r>
       <r>    13.3108     1.5669    16.0549 </r>
       <r>    13.3966     1.7539    16.2054 </r>
       <r>    13.4824     1.6845    16.3499 </r>
       <r>    13.5682     1.5117    16.4796 </r>
       <r>    13.6540     1.5934    16.6163 </r>
       <r>    13.7398     2.1710    16.8025 </r>
       <r>    13.8256     1.4775    16.9293 </r>
       <r>    13.9114     0.4848    16.9709 </r>
       <r>    13.9971     0.4132    17.0063 </r>
       <r>    14.0829     0.8806    17.0818 </r>
       <r>    14.1687     0.9500    17.1633 </r>
       <r>    14.2545     0.9500    17.2448 </r>
       <r>    14.3403     1.5058    17.3740 </r>
       <r>    14.4261     1.5290    17.5052 </r>
       <r>    14.5119     0.9248    17.5845 </r>
       <r>    14.5977     0.8277    17.6555 </r>
       <r>    14.6835     0.8492    17.7284 </r>
       <r>    14.7692     0.5778    17.7780 </r>
       <r>    14.8550     0.7074    17.8386 </r>
       <r>    14.9408     1.2877    17.9491 </r>
       <r>    15.0266     1.3640    18.0661 </r>
       <r>    15.1124     1.0634    18.1574 </r>
       <r>    15.1982     1.3188    18.2705 </r>
       <r>    15.2840     1.5640    18.4047 </r>
       <r>    15.3698     1.3894    18.5238 </r>
       <r>    15.4556     1.6346    18.6641 </r>
       <r>    15.5413     2.0625    18.8410 </r>
       <r>    15.6271     1.8660    19.0011 </r>
       <r>    15.7129     1.3984    19.1211 </r>
       <r>    15.7987     0.8895    19.1974 </r>
       <r>    15.8845     0.4170    19.2331 </r>
       <r>    15.9703     0.4995    19.2760 </r>
       <r>    16.0561     0.6631    19.3329 </r>
       <r>    16.1419     0.4190    19.3688 </r>
       <r>    16.2277     0.5419    19.4153 </r>
       <r>    16.3134     1.1895    19.5174 </r>
       <r>    16.3992     0.9743    19.6009 </r>
       <r>    16.4850     0.3699    19.6327 </r>
       <r>    16.5708     0.3272    19.6608 </r>
       <r>    16.6566     0.4282    19.6975 </r>
       <r>    16.7424     0.5006    19.7404 </r>
       <r>    16.8282     0.6201    19.7936 </r>
       <r>    16.9140     0.6634    19.8505 </r>
       <r>    16.9998     0.6068    19.9026 </r>
       <r>    17.0855     0.5260    19.9477 </r>
       <r>    17.1713     0.3850    19.9807 </r>
       <r>    17.2571     0.1728    19.9956 </r>
       <r>    17.3429     0.0466    19.9996 </r>
       <r>    17.4287     0.0049    20.0000 </r>
       <r>    17.5145     0.0001    20.0000 </r>
       <r>    17.6003     0.0000    20.0000 </r>
       <r>    17.6861     0.0000    20.0000 </r>
       <r>    17.7719     0.0000    20.0000 </r>
       <r>    17.8576     0.0000    20.0000 </r>
       <r>    17.9434     0.0000    20.0000 </r>
       <r>    18.0292     0.0000    20.0000 </r>
       <r>    18.1150     0.0000    20.0000 </r>
       <r>    18.2008     0.0000    20.0000 </r>
       <r>    18.2866     0.0000    20.0000 </r>
       <r>    18.3724     0.0000    20.0000 </r>
      </set>
     </set>
    </array>
   </total>
  </dos>
 </calculation>
 <structure name="finalpos" >
  <crystal>
   <varray name="basis" >
    <v>       0.00000000       2.73278639       2.73278639 </v>
    <v>       2.73278639       0.00000000       2.73278639 </v>
    <v>       2.73278639       2.73278639      -0.00000000 </v>
   </varray>
   <i name="volume">     40.81756133 </i>
   <varray name="rec_basis" >
    <v>      -0.18296344       0.18296344       0.18296344 </v>
    <v>       0.18296344      -0.18296344       0.18296344 </v>
    <v>       0.18296344       0.18296344      -0.18296344 </v>
   </varray>
  </crystal>
  <varray name="positions" >
   <v>       0.87500000       0.87500000       0.87500000 </v>
   <v>       0.12500000       0.12500000       0.12500000 </v>
  </varray>
 </structure>
</modeling>
