   2   2   0   0
  0.2079688E+02  0.3889087E-09  0.3889087E-09  0.3889087E-09  0.1000000E-14
  1.000000000000000E-004
  CAR 
 diamond Si                              
     18.37237472     -7.36427095  301      5.95860853      1.00000000
     -7.364  0.0000E+00  0.0000E+00
     -7.278  0.0000E+00  0.0000E+00
     -7.193  0.0000E+00  0.0000E+00
     -7.107  0.0000E+00  0.0000E+00
     -7.021  0.0000E+00  0.0000E+00
     -6.935  0.0000E+00  0.0000E+00
     -6.850  0.0000E+00  0.0000E+00
     -6.764  0.7562E-18  0.6488E-19
     -6.678  0.7801E-14  0.6693E-15
     -6.592  0.1805E-10  0.1549E-11
     -6.506  0.9985E-08  0.8581E-09
     -6.421  0.1355E-05  0.1171E-06
     -6.335  0.4858E-04  0.4285E-05
     -6.249  0.5860E-03  0.5456E-04
     -6.163  0.3582E-02  0.3618E-03
     -6.077  0.1076E-01  0.1285E-02
     -5.992  0.1379E-01  0.2468E-02
     -5.906  0.1668E-01  0.3899E-02
     -5.820  0.2837E-01  0.6332E-02
     -5.734  0.2990E-01  0.8897E-02
     -5.648  0.1727E-01  0.1038E-01
     -5.563  0.2615E-01  0.1262E-01
     -5.477  0.4517E-01  0.1650E-01
     -5.391  0.3985E-01  0.1992E-01
     -5.305  0.3803E-01  0.2318E-01
     -5.220  0.3819E-01  0.2646E-01
     -5.134  0.2602E-01  0.2869E-01
     -5.048  0.3637E-01  0.3181E-01
     -4.962  0.7006E-01  0.3782E-01
     -4.876  0.5987E-01  0.4296E-01
     -4.791  0.4598E-01  0.4690E-01
     -4.705  0.5474E-01  0.5160E-01
     -4.619  0.4222E-01  0.5522E-01
     -4.533  0.3212E-01  0.5797E-01
     -4.447  0.6160E-01  0.6326E-01
     -4.362  0.9135E-01  0.7109E-01
     -4.276  0.8923E-01  0.7875E-01
     -4.190  0.7289E-01  0.8500E-01
     -4.104  0.6139E-01  0.9027E-01
     -4.019  0.5619E-01  0.9509E-01
     -3.933  0.5494E-01  0.9980E-01
     -3.847  0.9520E-01  0.1080E+00
     -3.761  0.1534E+00  0.1211E+00
     -3.675  0.1156E+00  0.1311E+00
     -3.590  0.7234E-01  0.1373E+00
     -3.504  0.8763E-01  0.1448E+00
     -3.418  0.5636E-01  0.1496E+00
     -3.332  0.5259E-01  0.1541E+00
     -3.246  0.1006E+00  0.1628E+00
     -3.161  0.1225E+00  0.1733E+00
     -3.075  0.7460E-01  0.1797E+00
     -2.989  0.3897E-01  0.1830E+00
     -2.903  0.4613E-01  0.1870E+00
     -2.817  0.4505E-01  0.1908E+00
     -2.732  0.7885E-01  0.1976E+00
     -2.646  0.8811E-01  0.2052E+00
     -2.560  0.4752E-01  0.2092E+00
     -2.474  0.2682E-01  0.2115E+00
     -2.389  0.1905E-01  0.2132E+00
     -2.303  0.2800E-01  0.2156E+00
     -2.217  0.3484E-01  0.2186E+00
     -2.131  0.3169E-01  0.2213E+00
     -2.045  0.2060E-01  0.2230E+00
     -1.960  0.1335E-01  0.2242E+00
     -1.874  0.1632E-01  0.2256E+00
     -1.788  0.2140E-01  0.2274E+00
     -1.702  0.1314E-01  0.2285E+00
     -1.616  0.1903E-01  0.2302E+00
     -1.531  0.2934E-01  0.2327E+00
     -1.445  0.6018E-01  0.2379E+00
     -1.359  0.1001E+00  0.2464E+00
     -1.273  0.8086E-01  0.2534E+00
     -1.187  0.5946E-01  0.2585E+00
     -1.102  0.1124E+00  0.2681E+00
     -1.016  0.1656E+00  0.2823E+00
     -0.930  0.1458E+00  0.2948E+00
     -0.844  0.1102E+00  0.3043E+00
     -0.759  0.1091E+00  0.3137E+00
     -0.673  0.1095E+00  0.3230E+00
     -0.587  0.5780E-01  0.3280E+00
     -0.501  0.3010E-01  0.3306E+00
     -0.415  0.8003E-01  0.3375E+00
     -0.330  0.1007E+00  0.3461E+00
     -0.244  0.5813E-01  0.3511E+00
     -0.158  0.3697E-01  0.3543E+00
     -0.072  0.4098E-01  0.3578E+00
      0.014  0.6874E-01  0.3637E+00
      0.099  0.4894E-01  0.3679E+00
      0.185  0.2284E-01  0.3698E+00
      0.271  0.4106E-01  0.3733E+00
      0.357  0.5895E-01  0.3784E+00
      0.443  0.5333E-01  0.3830E+00
      0.528  0.3256E-01  0.3858E+00
      0.614  0.2510E-01  0.3879E+00
      0.700  0.2198E-01  0.3898E+00
      0.786  0.3934E-01  0.3932E+00
      0.871  0.5628E-01  0.3980E+00
      0.957  0.3110E-01  0.4007E+00
      1.043  0.5755E-02  0.4012E+00
      1.129  0.7526E-03  0.4012E+00
      1.215  0.9069E-02  0.4020E+00
      1.300  0.5236E-01  0.4065E+00
      1.386  0.9547E-01  0.4147E+00
      1.472  0.8839E-01  0.4223E+00
      1.558  0.1054E+00  0.4313E+00
      1.644  0.1153E+00  0.4412E+00
      1.729  0.8700E-01  0.4487E+00
      1.815  0.9617E-01  0.4569E+00
      1.901  0.1601E+00  0.4707E+00
      1.987  0.1738E+00  0.4856E+00
      2.072  0.1149E+00  0.4954E+00
      2.158  0.8231E-01  0.5025E+00
      2.244  0.1020E+00  0.5112E+00
      2.330  0.1054E+00  0.5203E+00
      2.416  0.1124E+00  0.5299E+00
      2.501  0.1304E+00  0.5411E+00
      2.587  0.1688E+00  0.5556E+00
      2.673  0.1677E+00  0.5700E+00
      2.759  0.1117E+00  0.5796E+00
      2.845  0.1073E+00  0.5888E+00
      2.930  0.1707E+00  0.6034E+00
      3.016  0.2264E+00  0.6228E+00
      3.102  0.2141E+00  0.6412E+00
      3.188  0.1259E+00  0.6520E+00
      3.274  0.9912E-01  0.6605E+00
      3.359  0.1672E+00  0.6748E+00
      3.445  0.1990E+00  0.6919E+00
      3.531  0.1597E+00  0.7056E+00
      3.617  0.9431E-01  0.7137E+00
      3.702  0.1088E+00  0.7230E+00
      3.788  0.1837E+00  0.7388E+00
      3.874  0.2004E+00  0.7560E+00
      3.960  0.1647E+00  0.7701E+00
      4.046  0.1144E+00  0.7799E+00
      4.131  0.1172E+00  0.7900E+00
      4.217  0.1619E+00  0.8039E+00
      4.303  0.1239E+00  0.8145E+00
      4.389  0.7301E-01  0.8208E+00
      4.475  0.8899E-01  0.8284E+00
      4.560  0.1371E+00  0.8402E+00
      4.646  0.1085E+00  0.8495E+00
      4.732  0.6140E-01  0.8547E+00
      4.818  0.7403E-01  0.8611E+00
      4.904  0.8417E-01  0.8683E+00
      4.989  0.5650E-01  0.8732E+00
      5.075  0.2808E-01  0.8756E+00
      5.161  0.3284E-01  0.8784E+00
      5.247  0.3942E-01  0.8818E+00
      5.332  0.2012E-01  0.8835E+00
      5.418  0.1139E-01  0.8845E+00
      5.504  0.2341E-01  0.8865E+00
      5.590  0.1940E-01  0.8881E+00
      5.676  0.6613E-02  0.8887E+00
      5.761  0.1850E-02  0.8889E+00
      5.847  0.2701E-03  0.8889E+00
      5.933  0.1145E-04  0.8889E+00
      6.019  0.1193E-05  0.8889E+00
      6.105  0.7420E-04  0.8889E+00
      6.190  0.1363E-02  0.8890E+00
      6.276  0.7016E-02  0.8896E+00
      6.362  0.1208E-01  0.8907E+00
      6.448  0.1743E-01  0.8921E+00
      6.534  0.3150E-01  0.8948E+00
      6.619  0.3430E-01  0.8978E+00
      6.705  0.3708E-01  0.9010E+00
      6.791  0.3823E-01  0.9043E+00
      6.877  0.2929E-01  0.9068E+00
      6.962  0.4142E-01  0.9103E+00
      7.048  0.8166E-01  0.9173E+00
      7.134  0.8251E-01  0.9244E+00
      7.220  0.6765E-01  0.9302E+00
      7.306  0.1012E+00  0.9389E+00
      7.391  0.1346E+00  0.9504E+00
      7.477  0.1262E+00  0.9613E+00
      7.563  0.1014E+00  0.9700E+00
      7.649  0.1162E+00  0.9799E+00
      7.735  0.1344E+00  0.9915E+00
      7.820  0.1454E+00  0.1004E+01
      7.906  0.1823E+00  0.1020E+01
      7.992  0.1986E+00  0.1037E+01
      8.078  0.1415E+00  0.1049E+01
      8.164  0.1078E+00  0.1058E+01
      8.249  0.1457E+00  0.1070E+01
      8.335  0.1873E+00  0.1087E+01
      8.421  0.1307E+00  0.1098E+01
      8.507  0.1253E+00  0.1109E+01
      8.592  0.1244E+00  0.1119E+01
      8.678  0.1001E+00  0.1128E+01
      8.764  0.1246E+00  0.1138E+01
      8.850  0.1803E+00  0.1154E+01
      8.936  0.2681E+00  0.1177E+01
      9.021  0.2740E+00  0.1200E+01
      9.107  0.2063E+00  0.1218E+01
      9.193  0.1977E+00  0.1235E+01
      9.279  0.1840E+00  0.1251E+01
      9.365  0.1957E+00  0.1268E+01
      9.450  0.2210E+00  0.1287E+01
      9.536  0.1533E+00  0.1300E+01
      9.622  0.9773E-01  0.1308E+01
      9.708  0.1013E+00  0.1317E+01
      9.793  0.9752E-01  0.1325E+01
      9.879  0.1281E+00  0.1336E+01
      9.965  0.1631E+00  0.1350E+01
     10.051  0.1195E+00  0.1360E+01
     10.137  0.7317E-01  0.1367E+01
     10.222  0.1042E+00  0.1376E+01
     10.308  0.2376E+00  0.1396E+01
     10.394  0.2816E+00  0.1420E+01
     10.480  0.2048E+00  0.1438E+01
     10.566  0.1565E+00  0.1451E+01
     10.651  0.1423E+00  0.1463E+01
     10.737  0.1518E+00  0.1476E+01
     10.823  0.1177E+00  0.1487E+01
     10.909  0.8860E-01  0.1494E+01
     10.995  0.9164E-01  0.1502E+01
     11.080  0.7162E-01  0.1508E+01
     11.166  0.7633E-01  0.1515E+01
     11.252  0.1071E+00  0.1524E+01
     11.338  0.1394E+00  0.1536E+01
     11.423  0.1697E+00  0.1550E+01
     11.509  0.1108E+00  0.1560E+01
     11.595  0.6838E-01  0.1566E+01
     11.681  0.9918E-01  0.1574E+01
     11.767  0.1343E+00  0.1586E+01
     11.852  0.1652E+00  0.1600E+01
     11.938  0.1706E+00  0.1615E+01
     12.024  0.1845E+00  0.1630E+01
     12.110  0.1479E+00  0.1643E+01
     12.196  0.9261E-01  0.1651E+01
     12.281  0.1158E+00  0.1661E+01
     12.367  0.1452E+00  0.1673E+01
     12.453  0.1269E+00  0.1684E+01
     12.539  0.1124E+00  0.1694E+01
     12.625  0.9251E-01  0.1702E+01
     12.710  0.6422E-01  0.1707E+01
     12.796  0.1030E+00  0.1716E+01
     12.882  0.1509E+00  0.1729E+01
     12.968  0.1281E+00  0.1740E+01
     13.053  0.9357E-01  0.1748E+01
     13.139  0.1008E+00  0.1757E+01
     13.225  0.1406E+00  0.1769E+01
     13.311  0.1741E+00  0.1784E+01
     13.397  0.1949E+00  0.1801E+01
     13.482  0.1872E+00  0.1817E+01
     13.568  0.1680E+00  0.1831E+01
     13.654  0.1770E+00  0.1846E+01
     13.740  0.2412E+00  0.1867E+01
     13.826  0.1642E+00  0.1881E+01
     13.911  0.5387E-01  0.1886E+01
     13.997  0.4591E-01  0.1890E+01
     14.083  0.9784E-01  0.1898E+01
     14.169  0.1056E+00  0.1907E+01
     14.255  0.1056E+00  0.1916E+01
     14.340  0.1673E+00  0.1930E+01
     14.426  0.1699E+00  0.1945E+01
     14.512  0.1028E+00  0.1954E+01
     14.598  0.9197E-01  0.1962E+01
     14.683  0.9436E-01  0.1970E+01
     14.769  0.6420E-01  0.1975E+01
     14.855  0.7859E-01  0.1982E+01
     14.941  0.1431E+00  0.1994E+01
     15.027  0.1516E+00  0.2007E+01
     15.112  0.1182E+00  0.2017E+01
     15.198  0.1465E+00  0.2030E+01
     15.284  0.1738E+00  0.2045E+01
     15.370  0.1544E+00  0.2058E+01
     15.456  0.1816E+00  0.2074E+01
     15.541  0.2292E+00  0.2093E+01
     15.627  0.2073E+00  0.2111E+01
     15.713  0.1554E+00  0.2125E+01
     15.799  0.9884E-01  0.2133E+01
     15.884  0.4633E-01  0.2137E+01
     15.970  0.5550E-01  0.2142E+01
     16.056  0.7367E-01  0.2148E+01
     16.142  0.4655E-01  0.2152E+01
     16.228  0.6021E-01  0.2157E+01
     16.313  0.1322E+00  0.2169E+01
     16.399  0.1083E+00  0.2178E+01
     16.485  0.4110E-01  0.2181E+01
     16.571  0.3636E-01  0.2185E+01
     16.657  0.4758E-01  0.2189E+01
     16.742  0.5562E-01  0.2193E+01
     16.828  0.6890E-01  0.2199E+01
     16.914  0.7371E-01  0.2206E+01
     17.000  0.6742E-01  0.2211E+01
     17.086  0.5844E-01  0.2216E+01
     17.171  0.4278E-01  0.2220E+01
     17.257  0.1920E-01  0.2222E+01
     17.343  0.5181E-02  0.2222E+01
     17.429  0.5446E-03  0.2222E+01
     17.514  0.1605E-04  0.2222E+01
     17.600  0.1195E-06  0.2222E+01
     17.686  0.2164E-09  0.2222E+01
     17.772  0.9355E-13  0.2222E+01
     17.858  0.1037E-16  0.2222E+01
     17.943  0.0000E+00  0.2222E+01
     18.029  0.0000E+00  0.2222E+01
     18.115  0.0000E+00  0.2222E+01
     18.201  0.0000E+00  0.2222E+01
     18.287  0.0000E+00  0.2222E+01
     18.372  0.0000E+00  0.2222E+01
