    2    2    9    1
  0.2079688E+02  0.3889087E-09  0.3889087E-09  0.3889087E-09  0.1000000E-14
  1.000000000000000E-004
  CAR 
 diamond Si                              
      8     56     10
 
  0.0000000E+00  0.0000000E+00  0.0000000E+00  0.7513148E-03
    1       -6.194423   1.000000
    2        5.643453   0.999996
    3        5.643456   0.999996
    4        5.643456   0.999996
    5        8.203997   0.000000
    6        8.203998   0.000000
    7        8.203998   0.000000
    8        8.785339   0.000000
    9       13.423594   0.000000
   10       13.423594   0.000000
 
  0.9090909E-01  0.0000000E+00  0.0000000E+00  0.6010518E-02
    1       -6.087856   1.000000
    2        4.656424   1.000000
    3        5.479353   1.000000
    4        5.479355   1.000000
    5        8.195838   0.000000
    6        8.447373   0.000000
    7        8.447375   0.000000
    8        9.608119   0.000000
    9       13.113702   0.000000
   10       13.113702   0.000000
 
  0.1818182E+00  0.0000000E+00  0.0000000E+00  0.6010518E-02
    1       -5.772669   1.000000
    2        2.990662   1.000000
    3        5.141248   1.000000
    4        5.141251   1.000000
    5        7.874629   0.000000
    6        8.916981   0.000000
    7        8.916981   0.000000
    8       11.205667   0.000000
    9       12.753546   0.000000
   10       12.753547   0.000000
 
  0.2727273E+00  0.0000000E+00  0.0000000E+00  0.6010518E-02
    1       -5.265208   1.000000
    2        1.349941   1.000000
    3        4.819730   1.000000
    4        4.819733   1.000000
    5        7.530429   0.000000
    6        9.172206   0.000000
    7        9.172207   0.000000
    8       12.775252   0.000000
    9       13.020149   0.000000
   10       13.020150   0.000000
 
  0.3636364E+00  0.0000000E+00  0.0000000E+00  0.6010518E-02
    1       -4.617034   1.000000
    2       -0.086940   1.000000
    3        4.589457   1.000000
    4        4.589460   1.000000
    5        7.270826   0.000000
    6        9.123848   0.000000
    7        9.123849   0.000000
    8       13.489350   0.000000
    9       14.063887   0.000000
   10       14.063889   0.000000
 
  0.4545455E+00  0.0000000E+00  0.0000000E+00  0.6010518E-02
    1       -4.020247   1.000000
    2       -1.084615   1.000000
    3        4.471914   1.000000
    4        4.471917   1.000000
    5        7.134554   0.000000
    6        9.022079   0.000000
    7        9.022081   0.000000
    8       13.371288   0.000000
    9       15.591769   0.000000
   10       15.591771   0.000000
 
  0.9090909E-01  0.9090909E-01  0.0000000E+00  0.4507889E-02
    1       -6.052155   1.000000
    2        4.824281   1.000000
    3        5.159000   1.000000
    4        5.159002   1.000000
    5        7.888919   0.000000
    6        8.865208   0.000000
    7        8.865209   0.000000
    8        9.535597   0.000000
    9       12.551515   0.000000
   10       13.582187   0.000000
 
  0.1818182E+00  0.9090909E-01  0.0000000E+00  0.1803156E-01
    1       -5.805763   1.000000
    2        3.478808   1.000000
    3        4.766045   1.000000
    4        4.940986   1.000000
    5        7.922738   0.000000
    6        8.890441   0.000000
    7        9.451410   0.000000
    8       10.523447   0.000000
    9       12.275702   0.000000
   10       13.533939   0.000000
 
  0.2727273E+00  0.9090909E-01  0.0000000E+00  0.1803156E-01
    1       -5.359798   1.000000
    2        1.876598   1.000000
    3        4.449637   1.000000
    4        4.570615   1.000000
    5        8.032372   0.000000
    6        8.897761   0.000000
    7        9.808020   0.000000
    8       10.995174   0.000000
    9       13.316652   0.000000
   10       13.709816   0.000000
 
  0.3636364E+00  0.9090909E-01  0.0000000E+00  0.1803156E-01
    1       -4.748726   1.000000
    2        0.388034   1.000000
    3        4.192008   1.000000
    4        4.263495   1.000000
    5        7.868861   0.000000
    6        8.955843   0.000000
    7        9.749751   0.000000
    8       11.760646   0.000000
    9       14.493312   0.000000
   10       14.603949   0.000000
 
  0.4545455E+00  0.9090909E-01  0.0000000E+00  0.1803156E-01
    1       -4.092470   1.000000
    2       -0.786308   1.000000
    3        3.897443   1.000000
    4        4.222517   1.000000
    5        7.725787   0.000000
    6        8.925909   0.000000
    7        9.522207   0.000000
    8       12.986705   0.000000
    9       14.408989   0.000000
   10       16.034663   0.000000
 
 -0.4545455E+00  0.9090909E-01  0.0000000E+00  0.1803156E-01
    1       -3.829509   1.000000
    2       -1.179572   1.000000
    3        3.722423   1.000000
    4        4.321118   1.000000
    5        7.694674   0.000000
    6        8.985634   0.000000
    7        9.338390   0.000000
    8       13.678466   0.000000
    9       14.966550   0.000000
   10       15.300357   0.000000
 
 -0.3636364E+00  0.9090909E-01  0.0000000E+00  0.1803156E-01
    1       -4.301572   1.000000
    2       -0.445000   1.000000
    3        3.688630   1.000000
    4        4.545228   1.000000
    5        7.794478   0.000000
    6        9.174240   0.000000
    7        9.257199   0.000000
    8       13.361620   0.000000
    9       13.663041   0.000000
   10       14.803807   0.000000
 
 -0.2727273E+00  0.9090909E-01  0.0000000E+00  0.1803156E-01
    1       -4.968141   1.000000
    2        0.864347   1.000000
    3        3.810792   1.000000
    4        4.865741   1.000000
    5        8.009356   0.000000
    6        9.182592   0.000000
    7        9.379316   0.000000
    8       12.304023   0.000000
    9       12.489659   0.000000
   10       14.962210   0.000000
 
 -0.1818182E+00  0.9090909E-01  0.0000000E+00  0.1803156E-01
    1       -5.530445   1.000000
    2        2.394695   1.000000
    3        4.107079   1.000000
    4        5.226580   1.000000
    5        8.303672   0.000000
    6        8.895591   0.000000
    7        9.245903   0.000000
    8       11.406500   0.000000
    9       12.076870   0.000000
   10       13.820463   0.000000
 
 -0.9090909E-01  0.9090909E-01  0.0000000E+00  0.9015778E-02
    1       -5.911549   1.000000
    2        3.851411   1.000000
    3        4.667524   1.000000
    4        5.499912   1.000000
    5        8.497578   0.000000
    6        8.536230   0.000000
    7        8.662020   0.000000
    8       10.500994   0.000000
    9       12.421943   0.000000
   10       13.268837   0.000000
 
  0.1818182E+00  0.1818182E+00  0.0000000E+00  0.4507889E-02
    1       -5.628335   1.000000
    2        3.322249   1.000000
    3        4.337272   1.000000
    4        4.337274   1.000000
    5        7.249773   0.000000
    6        9.729651   0.000000
    7       10.200184   0.000000
    8       10.200185   0.000000
    9       12.349489   0.000000
   10       14.052989   0.000000
 
  0.2727273E+00  0.1818182E+00  0.0000000E+00  0.1803156E-01
    1       -5.247362   1.000000
    2        2.178315   1.000000
    3        3.921312   1.000000
    4        3.997786   1.000000
    5        7.302381   0.000000
    6        9.335827   0.000000
    7       10.487072   0.000000
    8       10.782233   0.000000
    9       13.538808   0.000000
   10       14.363891   0.000000
 
  0.3636364E+00  0.1818182E+00  0.0000000E+00  0.1803156E-01
    1       -4.685722   1.000000
    2        0.825533   1.000000
    3        3.393577   1.000000
    4        3.802756   1.000000
    5        7.538570   0.000000
    6        9.692952   0.000000
    7       10.288097   0.000000
    8       10.871544   0.000000
    9       15.168840   0.000000
   10       15.261751   0.000000
 
  0.4545455E+00  0.1818182E+00  0.0000000E+00  0.1803156E-01
    1       -4.017993   1.000000
    2       -0.392887   1.000000
    3        2.922252   1.000000
    4        3.769779   1.000000
    5        7.579407   0.000000
    6       10.053543   0.000000
    7       10.625972   0.000000
    8       10.904206   0.000000
    9       15.527182   0.000000
   10       16.517421   0.000000
 
 -0.4545455E+00  0.1818182E+00  0.0000000E+00  0.1803156E-01
    1       -3.546659   1.000000
    2       -1.089134   1.000000
    3        2.591101   1.000000
    4        3.897886   1.000000
    5        7.674385   0.000000
    6        9.927809   0.000000
    7       10.336745   0.000000
    8       12.515082   0.000000
    9       14.686826   0.000000
   10       15.168045   0.000000
 
 -0.3636364E+00  0.1818182E+00  0.0000000E+00  0.1803156E-01
    1       -3.825168   1.000000
    2       -0.685825   1.000000
    3        2.441779   1.000000
    4        4.171975   1.000000
    5        7.918882   0.000000
    6        9.923695   0.000000
    7       10.110246   0.000000
    8       13.322501   0.000000
    9       13.453082   0.000000
   10       14.264391   0.000000
 
 -0.2727273E+00  0.1818182E+00  0.0000000E+00  0.1803156E-01
    1       -4.483952   1.000000
    2        0.412492   1.000000
    3        2.525739   1.000000
    4        4.553877   1.000000
    5        8.275719   0.000000
    6        9.860559   0.000000
    7        9.979956   0.000000
    8       11.932951   0.000000
    9       12.216380   0.000000
   10       15.693986   0.000000
 
 -0.1818182E+00  0.1818182E+00  0.0000000E+00  0.9015778E-02
    1       -5.089961   1.000000
    2        1.587939   1.000000
    3        3.006479   1.000000
    4        4.962361   1.000000
    5        8.589511   0.000000
    6        9.371941   0.000000
    7        9.671269   0.000000
    8       11.260428   0.000000
    9       11.783864   0.000000
   10       15.556779   0.000000
 
  0.2727273E+00  0.2727273E+00  0.0000000E+00  0.4507889E-02
    1       -4.931012   1.000000
    2        1.714078   1.000000
    3        3.624759   1.000000
    4        3.624760   1.000000
    5        6.668525   0.000000
    6        8.464712   0.000000
    7       11.752522   0.000000
    8       11.752524   0.000000
    9       14.007159   0.000000
   10       14.834908   0.000000
 
  0.3636364E+00  0.2727273E+00  0.0000000E+00  0.1803156E-01
    1       -4.425461   1.000000
    2        0.771077   1.000000
    3        3.095904   1.000000
    4        3.395741   1.000000
    5        6.802081   0.000000
    6        8.178984   0.000000
    7       12.034831   0.000000
    8       12.221202   0.000000
    9       15.459935   0.000000
   10       15.579184   0.000000
 
  0.4545455E+00  0.2727273E+00  0.0000000E+00  0.1803156E-01
    1       -3.777069   1.000000
    2       -0.243525   1.000000
    3        2.380181   1.000000
    4        3.334378   1.000000
    5        7.004533   0.000000
    6        8.919205   0.000000
    7       11.868861   0.000000
    8       12.093189   0.000000
    9       16.616810   0.000000
   10       16.936754   0.000000
 
 -0.4545455E+00  0.2727273E+00  0.0000000E+00  0.1803156E-01
    1       -3.175649   1.000000
    2       -1.031097   1.000000
    3        1.815546   1.000000
    4        3.444333   1.000000
    5        7.136673   0.000000
    6       10.385660   0.000000
    7       11.694955   0.000000
    8       11.768366   0.000000
    9       15.071008   0.000000
   10       15.214254   0.000000
 
 -0.3636364E+00  0.2727273E+00  0.0000000E+00  0.1803156E-01
    1       -3.231407   1.000000
    2       -0.952564   1.000000
    3        1.536000   1.000000
    4        3.714731   1.000000
    5        7.421292   0.000000
    6       11.412871   0.000000
    7       11.442742   0.000000
    8       12.314344   0.000000
    9       13.361851   0.000000
   10       13.475236   0.000000
 
 -0.2727273E+00  0.2727273E+00  0.0000000E+00  0.9015778E-02
    1       -3.854016   1.000000
    2       -0.204886   1.000000
    3        1.695673   1.000000
    4        4.111503   1.000000
    5        7.856721   0.000000
    6       10.812406   0.000000
    7       11.174702   0.000000
    8       11.976916   0.000000
    9       12.400672   0.000000
   10       14.282893   0.000000
 
  0.3636364E+00  0.3636364E+00  0.0000000E+00  0.4507889E-02
    1       -3.975735   1.000000
    2        0.115453   1.000000
    3        3.123538   1.000000
    4        3.123539   1.000000
    5        6.319888   0.000000
    6        7.341435   0.000000
    7       13.398792   0.000000
    8       13.398794   0.000000
    9       15.917847   0.000000
   10       15.936566   0.000000
 
  0.4545455E+00  0.3636364E+00  0.0000000E+00  0.1803156E-01
    1       -3.363686   1.000000
    2       -0.688964   1.000000
    3        2.599889   1.000000
    4        3.019651   1.000000
    5        6.529191   0.000000
    6        7.350654   0.000000
    7       13.721309   0.000000
    8       13.732363   0.000000
    9       17.066706   0.000000
   10       17.090920   0.000000
 
 -0.4545455E+00  0.3636364E+00  0.0000000E+00  0.1803156E-01
    1       -2.701726   1.000000
    2       -1.395883   1.000000
    3        1.836963   1.000000
    4        3.091345   1.000000
    5        6.698622   0.000000
    6        8.519582   0.000000
    7       13.449335   0.000000
    8       13.582266   0.000000
    9       15.319298   0.000000
   10       15.438417   0.000000
 
 -0.3636364E+00  0.3636364E+00  0.0000000E+00  0.9015778E-02
    1       -2.641448   1.000000
    2       -1.425111   1.000000
    3        1.361126   1.000000
    4        3.332282   1.000000
    5        6.972606   0.000000
    6       10.228722   0.000000
    7       12.769193   0.000000
    8       13.315661   0.000000
    9       13.519101   0.000000
   10       13.948477   0.000000
 
  0.4545455E+00  0.4545455E+00  0.0000000E+00  0.4507889E-02
    1       -2.788332   1.000000
    2       -1.407062   1.000000
    3        2.868080   1.000000
    4        2.868082   1.000000
    5        6.285364   0.000002
    6        6.613030   0.000000
    7       15.077923   0.000000
    8       15.077925   0.000000
    9       17.202515   0.000000
   10       17.202527   0.000000
 
 -0.4545455E+00  0.4545455E+00  0.0000000E+00  0.9015778E-02
    1       -2.153754   1.000000
    2       -2.041660   1.000000
    3        2.436366   1.000000
    4        2.892736   1.000000
    5        6.466796   0.000000
    6        7.040617   0.000000
    7       14.992150   0.000000
    8       15.214626   0.000000
    9       15.800674   0.000000
   10       16.001773   0.000000
 
  0.2727273E+00  0.1818182E+00  0.9090909E-01  0.1803156E-01
    1       -5.492579   1.000000
    2        2.621165   1.000000
    3        3.839371   1.000000
    4        4.828207   1.000000
    5        7.981953   0.000000
    6        9.206561   0.000000
    7        9.995445   0.000000
    8       10.421165   0.000000
    9       12.629426   0.000000
   10       14.059869   0.000000
 
  0.3636364E+00  0.1818182E+00  0.9090909E-01  0.3606311E-01
    1       -4.987888   1.000000
    2        1.318250   1.000000
    3        3.281138   1.000000
    4        4.513743   1.000000
    5        8.289648   0.000000
    6        9.172072   0.000000
    7       10.328576   0.000000
    8       10.541810   0.000000
    9       13.176856   0.000000
   10       15.462270   0.000000
 
  0.4545455E+00  0.1818182E+00  0.9090909E-01  0.3606311E-01
    1       -4.341008   1.000000
    2       -0.005189   1.000000
    3        3.023289   1.000000
    4        4.175573   1.000000
    5        8.314261   0.000000
    6        8.994349   0.000000
    7       10.423213   0.000000
    8       11.374159   0.000000
    9       14.254688   0.000000
   10       15.421978   0.000000
 
 -0.4545455E+00  0.1818182E+00  0.9090909E-01  0.3606311E-01
    1       -3.739442   1.000000
    2       -0.969626   1.000000
    3        2.922556   1.000000
    4        3.968717   1.000000
    5        8.282127   0.000000
    6        8.804802   0.000000
    7       10.359932   0.000000
    8       12.822864   0.000000
    9       14.349110   0.000000
   10       15.513823   0.000000
 
  0.3636364E+00  0.2727273E+00  0.9090909E-01  0.1803156E-01
    1       -4.805224   1.000000
    2        1.338456   1.000000
    3        3.133017   1.000000
    4        3.837131   1.000000
    5        7.428783   0.000000
    6        8.956368   0.000000
    7       10.596783   0.000000
    8       11.635817   0.000000
    9       14.088957   0.000000
   10       15.587028   0.000000
 
  0.4545455E+00  0.2727273E+00  0.9090909E-01  0.3606311E-01
    1       -4.197653   1.000000
    2        0.272719   1.000000
    3        2.563969   1.000000
    4        3.529725   1.000000
    5        7.789497   0.000000
    6        9.366529   0.000000
    7       10.284021   0.000000
    8       12.028324   0.000000
    9       14.953640   0.000000
   10       16.299580   0.000000
 
 -0.4545455E+00  0.2727273E+00  0.9090909E-01  0.3606311E-01
    1       -3.537446   1.000000
    2       -0.719634   1.000000
    3        2.181701   1.000000
    4        3.376947   1.000000
    5        7.922745   0.000000
    6        9.901860   0.000000
    7       10.710333   0.000000
    8       11.984291   0.000000
    9       14.629628   0.000000
   10       16.314846   0.000000
 
 -0.3636364E+00  0.2727273E+00  0.9090909E-01  0.3606311E-01
    1       -3.277112   1.000000
    2       -1.061450   1.000000
    3        1.955139   1.000000
    4        3.464953   1.000000
    5        8.131676   0.000000
    6        9.636820   0.000000
    7       11.868581   0.000000
    8       12.387989   0.000000
    9       12.870158   0.000000
   10       15.625035   0.000000
 
 -0.2727273E+00  0.2727273E+00  0.9090909E-01  0.3606311E-01
    1       -3.772723   1.000000
    2       -0.385401   1.000000
    3        1.947348   1.000000
    4        3.755310   1.000000
    5        8.485978   0.000000
    6        9.449350   0.000000
    7       11.163579   0.000000
    8       11.807805   0.000000
    9       14.102749   0.000000
   10       14.353806   0.000000
 
 -0.1818182E+00  0.2727273E+00  0.9090909E-01  0.1803156E-01
    1       -4.436355   1.000000
    2        0.582143   1.000000
    3        2.321889   1.000000
    4        4.163111   1.000000
    5        8.912579   0.000000
    6        9.034374   0.000000
    7       10.293516   0.000000
    8       11.347824   0.000000
    9       13.181304   0.000000
   10       16.039508   0.000000
 
  0.4545455E+00  0.3636364E+00  0.9090909E-01  0.1803156E-01
    1       -3.868565   1.000000
    2       -0.019544   1.000000
    3        2.663905   1.000000
    4        3.049629   1.000000
    5        7.079280   0.000000
    6        7.935869   0.000000
    7       11.967496   0.000000
    8       13.369414   0.000000
    9       15.720110   0.000000
   10       16.865577   0.000000
 
 -0.4545455E+00  0.3636364E+00  0.9090909E-01  0.3606311E-01
    1       -3.199702   1.000000
    2       -0.831678   1.000000
    3        2.032494   1.000000
    4        2.874421   1.000000
    5        7.424363   0.000000
    6        8.737548   0.000000
    7       11.618606   0.000000
    8       13.726646   0.000000
    9       14.919748   0.000000
   10       16.791343   0.000000
 
 -0.3636364E+00  0.3636364E+00  0.9090909E-01  0.3606311E-01
    1       -2.740807   1.000000
    2       -1.321635   1.000000
    3        1.520503   1.000000
    4        2.988598   1.000000
    5        7.636444   0.000000
    6       10.296804   0.000000
    7       11.316682   0.000000
    8       12.906401   0.000000
    9       13.688480   0.000000
   10       15.727079   0.000000
 
 -0.2727273E+00  0.3636364E+00  0.9090909E-01  0.1803156E-01
    1       -3.120694   1.000000
    2       -0.926087   1.000000
    3        1.417967   1.000000
    4        3.306576   1.000000
    5        8.002612   0.000000
    6       10.706037   0.000000
    7       11.429288   0.000000
    8       12.317514   0.000000
    9       13.167657   0.000000
   10       14.383248   0.000000
 
 -0.4545455E+00  0.4545455E+00  0.9090909E-01  0.1803156E-01
    1       -2.716956   1.000000
    2       -1.405566   1.000000
    3        2.474431   1.000000
    4        2.594782   1.000000
    5        7.013250   0.000000
    6        7.284538   0.000000
    7       13.486821   0.000000
    8       14.870122   0.000000
    9       15.538914   0.000000
   10       16.952951   0.000000
 
 -0.3636364E+00  0.4545455E+00  0.9090909E-01  0.1803156E-01
    1       -2.222056   1.000000
    2       -1.845374   1.000000
    3        1.828629   1.000000
    4        2.666061   1.000000
    5        7.292988   0.000000
    6        8.530396   0.000000
    7       13.037179   0.000000
    8       13.266899   0.000000
    9       15.311636   0.000000
   10       15.960302   0.000000
 
 -0.4545455E+00  0.3636364E+00  0.1818182E+00  0.1803156E-01
    1       -3.564464   1.000000
    2       -0.407715   1.000000
    3        1.919960   1.000000
    4        3.073747   1.000000
    5        8.720055   0.000000
    6        9.375325   0.000000
    7        9.909091   0.000000
    8       13.272810   0.000000
    9       14.547324   0.000000
   10       15.122129   0.000000
 
 -0.3636364E+00  0.3636364E+00  0.1818182E+00  0.3606311E-01
    1       -2.941462   1.000000
    2       -1.098554   1.000000
    3        1.643709   1.000000
    4        2.759266   1.000000
    5        9.095556   0.000000
    6        9.440344   0.000000
    7       10.701937   0.000000
    8       12.554968   0.000000
    9       13.725816   0.000000
   10       16.254587   0.000000
 
 -0.3636364E+00  0.4545455E+00  0.1818182E+00  0.1803156E-01
    1       -2.535802   1.000000
    2       -1.449751   1.000000
    3        1.872397   1.000000
    4        2.249423   1.000000
    5        8.640996   0.000000
    6        8.851268   0.000000
    7       11.212542   0.000000
    8       12.791643   0.000000
    9       15.226356   0.000000
   10       16.681074   0.000000
 
 -0.2727273E+00  0.4545455E+00  0.1818182E+00  0.1803156E-01
    1       -2.340520   1.000000
    2       -1.611679   1.000000
    3        1.598674   1.000000
    4        2.285495   1.000000
    5        8.989855   0.000000
    6       10.272459   0.000000
    7       10.976180   0.000000
    8       10.988362   0.000000
    9       15.242243   0.000000
   10       16.334951   0.000000
