 vasp.5.4.1 05Feb16 (build Jan 29 2020 16:04:39) complex                        
  
 executed on           IFC91_ompi date 2020.02.17  14:51:30
 running on   40 total cores
 distrk:  each k-point on   40 cores,    1 groups
 distr:  one band on NCORES_PER_BAND=   8 cores,    5 groups


--------------------------------------------------------------------------------------------------------


 INCAR:
 POTCAR:    PAW_PBE Si 05Jan2001                  
 POTCAR:    PAW_PBE Si 05Jan2001                  
   VRHFIN =Si: s2p2                                                             
   LEXCH  = PE                                                                  
   EATOM  =   103.0669 eV,    7.5752 Ry                                         
                                                                                
   TITEL  = PAW_PBE Si 05Jan2001                                                
   LULTRA =        F    use ultrasoft PP ?                                      
   IUNSCR =        1    unscreen: 0-lin 1-nonlin 2-no                           
   RPACOR =    1.500    partial core radius                                     
   POMASS =   28.085; ZVAL   =    4.000    mass and valenz                      
   RCORE  =    1.900    outmost cutoff radius                                   
   RWIGS  =    2.480; RWIGS  =    1.312    wigner-seitz radius (au A)           
   ENMAX  =  245.345; ENMIN  =  184.009 eV                                      
   ICORE  =        2    local potential                                         
   LCOR   =        T    correct aug charges                                     
   LPAW   =        T    paw PP                                                  
   EAUG   =  322.069                                                            
   DEXC   =    0.000                                                            
   RMAX   =    1.950    core radius for proj-oper                               
   RAUG   =    1.300    factor for augmentation sphere                          
   RDEP   =    1.993    radius for radial grids                                 
   RDEPT  =    1.837    core radius for aug-charge                              
                                                                                
   Atomic configuration                                                         
    6 entries                                                                   
     n  l   j            E        occ.                                          
     1  0  0.50     -1785.8828   2.0000                                         
     2  0  0.50      -139.4969   2.0000                                         
     2  1  1.50       -95.5546   6.0000                                         
     3  0  0.50       -10.8127   2.0000                                         
     3  1  0.50        -4.0811   2.0000                                         
     3  2  1.50        -4.0817   0.0000                                         
   Description                                                                  
     l       E           TYP  RCUT    TYP  RCUT                                 
     0    -10.8127223     23  1.900                                             
     0     -7.6451159     23  1.900                                             
     1     -4.0811372     23  1.900                                             
     1      2.4879257     23  1.900                                             
     2     -4.0817478      7  1.900                                             
  local pseudopotential read in
  partial core-charges read in
  partial kinetic energy density read in
  atomic valenz-charges read in
  non local Contribution for L=           0  read in
    real space projection operators read in
  non local Contribution for L=           0  read in
    real space projection operators read in
  non local Contribution for L=           1  read in
    real space projection operators read in
  non local Contribution for L=           1  read in
    real space projection operators read in
    PAW grid and wavefunctions read in
 
   number of l-projection  operators is LMAX  =           4
   number of lm-projection operators is LMMAX =           8
 
  PAW_PBE Si 05Jan2001                  :
 energy of atom  1       EATOM= -103.0669
 kinetic energy error for atom=    0.0061 (will be added to EATOM!!)
 
 
 POSCAR: Si dia                                  
  positions in direct lattice
  No initial velocities read in
 exchange correlation table for  LEXCH =        8
   RHO(1)=    0.500       N(1)  =     2000
   RHO(2)=  100.500       N(2)  =     4000
 


--------------------------------------------------------------------------------------------------------


 ion  position               nearest neighbor table
   1  0.875  0.875  0.875-   2 2.38   2 2.38   2 2.38   2 2.38
   2  0.125  0.125  0.125-   1 2.38   1 2.38   1 2.38   1 2.38
 
  LATTYP: Found a face centered cubic cell.
 ALAT       =     5.5000000000
  
  Lattice vectors:
  
 A1 = (   0.0000000000,   2.7500000000,   2.7500000000)
 A2 = (   2.7500000000,   0.0000000000,   2.7500000000)
 A3 = (   2.7500000000,   2.7500000000,   0.0000000000)


Analysis of symmetry for initial positions (statically):
=====================================================================
 Subroutine PRICEL returns:
 Original cell was already a primitive cell.
 

 Routine SETGRP: Setting up the symmetry group for a 
 face centered cubic supercell.


 Subroutine GETGRP returns: Found 48 space group operations
 (whereof 12 operations were pure point group operations)
 out of a pool of 48 trial point group operations.


The static configuration has the point symmetry D_3d.
 The point group associated with its full space group is O_h .


Analysis of symmetry for dynamics (positions and initial velocities):
=====================================================================
 Subroutine PRICEL returns:
 Original cell was already a primitive cell.
 

 Routine SETGRP: Setting up the symmetry group for a 
 face centered cubic supercell.


 Subroutine GETGRP returns: Found 48 space group operations
 (whereof 12 operations were pure point group operations)
 out of a pool of 48 trial point group operations.


The dynamic configuration has the point symmetry D_3d.
 The point group associated with its full space group is O_h .


 Subroutine INISYM returns: Found 48 space group operations
 (whereof 12 operations are pure point group operations),
 and found     1 'primitive' translations

 
 
 KPOINTS: k-points                                

Automatic generation of k-mesh.
Space group operators:
 irot       det(A)        alpha          n_x          n_y          n_z        tau_x        tau_y        tau_z
    1     1.000000     0.000000     1.000000     0.000000     0.000000     0.000000     0.000000     0.000000
    2    -1.000000     0.000000     1.000000     0.000000     0.000000     0.000000     0.000000     0.000000
    3     1.000000   120.000000    -0.577350    -0.577350    -0.577350     0.000000     0.000000     0.000000
    4    -1.000000   120.000000    -0.577350    -0.577350    -0.577350     0.000000     0.000000     0.000000
    5     1.000000   120.000000     0.577350     0.577350     0.577350     0.000000     0.000000     0.000000
    6    -1.000000   120.000000     0.577350     0.577350     0.577350     0.000000     0.000000     0.000000
    7     1.000000   180.000000     0.000000    -0.707107     0.707107     0.000000     0.000000     0.000000
    8    -1.000000   180.000000     0.000000    -0.707107     0.707107     0.000000     0.000000     0.000000
    9     1.000000   180.000000     0.707107    -0.707107     0.000000     0.000000     0.000000     0.000000
   10    -1.000000   180.000000     0.707107    -0.707107     0.000000     0.000000     0.000000     0.000000
   11     1.000000   180.000000     0.707107     0.000000    -0.707107     0.000000     0.000000     0.000000
   12    -1.000000   180.000000     0.707107     0.000000    -0.707107     0.000000     0.000000     0.000000
   13     1.000000    90.000000     0.000000     0.000000    -1.000000     0.500000     0.000000     0.000000
   14    -1.000000    90.000000     0.000000     0.000000    -1.000000     0.500000     0.000000     0.000000
   15     1.000000   180.000000     0.000000     0.707107     0.707107     0.500000     0.000000     0.000000
   16    -1.000000   180.000000     0.000000     0.707107     0.707107     0.500000     0.000000     0.000000
   17     1.000000    90.000000     0.000000     1.000000     0.000000     0.500000     0.000000     0.000000
   18    -1.000000    90.000000     0.000000     1.000000     0.000000     0.500000     0.000000     0.000000
   19     1.000000   180.000000     0.000000     0.000000     1.000000     0.000000     0.000000     0.500000
   20    -1.000000   180.000000     0.000000     0.000000     1.000000     0.000000     0.000000     0.500000
   21     1.000000   120.000000    -0.577350     0.577350     0.577350     0.000000     0.000000     0.500000
   22    -1.000000   120.000000    -0.577350     0.577350     0.577350     0.000000     0.000000     0.500000
   23     1.000000   120.000000    -0.577350     0.577350    -0.577350     0.000000     0.000000     0.500000
   24    -1.000000   120.000000    -0.577350     0.577350    -0.577350     0.000000     0.000000     0.500000
   25     1.000000    90.000000     0.000000     0.000000     1.000000     0.000000     0.500000     0.000000
   26    -1.000000    90.000000     0.000000     0.000000     1.000000     0.000000     0.500000     0.000000
   27     1.000000    90.000000    -1.000000     0.000000     0.000000     0.000000     0.500000     0.000000
   28    -1.000000    90.000000    -1.000000     0.000000     0.000000     0.000000     0.500000     0.000000
   29     1.000000   180.000000     0.707107     0.000000     0.707107     0.000000     0.500000     0.000000
   30    -1.000000   180.000000     0.707107     0.000000     0.707107     0.000000     0.500000     0.000000
   31     1.000000   120.000000     0.577350    -0.577350     0.577350     0.500000     0.000000     0.000000
   32    -1.000000   120.000000     0.577350    -0.577350     0.577350     0.500000     0.000000     0.000000
   33     1.000000   120.000000    -0.577350    -0.577350     0.577350     0.500000     0.000000     0.000000
   34    -1.000000   120.000000    -0.577350    -0.577350     0.577350     0.500000     0.000000     0.000000
   35     1.000000   180.000000     1.000000     0.000000     0.000000     0.500000     0.000000     0.000000
   36    -1.000000   180.000000     1.000000     0.000000     0.000000     0.500000     0.000000     0.000000
   37     1.000000    90.000000     0.000000    -1.000000     0.000000     0.000000     0.000000     0.500000
   38    -1.000000    90.000000     0.000000    -1.000000     0.000000     0.000000     0.000000     0.500000
   39     1.000000   180.000000     0.707107     0.707107     0.000000     0.000000     0.000000     0.500000
   40    -1.000000   180.000000     0.707107     0.707107     0.000000     0.000000     0.000000     0.500000
   41     1.000000    90.000000     1.000000     0.000000     0.000000     0.000000     0.000000     0.500000
   42    -1.000000    90.000000     1.000000     0.000000     0.000000     0.000000     0.000000     0.500000
   43     1.000000   120.000000     0.577350    -0.577350    -0.577350     0.000000     0.500000     0.000000
   44    -1.000000   120.000000     0.577350    -0.577350    -0.577350     0.000000     0.500000     0.000000
   45     1.000000   180.000000     0.000000     1.000000     0.000000     0.000000     0.500000     0.000000
   46    -1.000000   180.000000     0.000000     1.000000     0.000000     0.000000     0.500000     0.000000
   47     1.000000   120.000000     0.577350     0.577350    -0.577350     0.000000     0.500000     0.000000
   48    -1.000000   120.000000     0.577350     0.577350    -0.577350     0.000000     0.500000     0.000000
 
 Subroutine IBZKPT returns following result:
 ===========================================
 
 Found     56 irreducible k-points:
 
 Following reciprocal coordinates:
            Coordinates               Weight
  0.000000  0.000000  0.000000      1.000000
  0.090909  0.000000  0.000000      8.000000
  0.181818  0.000000  0.000000      8.000000
  0.272727  0.000000  0.000000      8.000000
  0.363636  0.000000  0.000000      8.000000
  0.454545  0.000000  0.000000      8.000000
  0.090909  0.090909  0.000000      6.000000
  0.181818  0.090909  0.000000     24.000000
  0.272727  0.090909  0.000000     24.000000
  0.363636  0.090909  0.000000     24.000000
  0.454545  0.090909  0.000000     24.000000
 -0.454545  0.090909  0.000000     24.000000
 -0.363636  0.090909  0.000000     24.000000
 -0.272727  0.090909  0.000000     24.000000
 -0.181818  0.090909  0.000000     24.000000
 -0.090909  0.090909  0.000000     12.000000
  0.181818  0.181818  0.000000      6.000000
  0.272727  0.181818  0.000000     24.000000
  0.363636  0.181818  0.000000     24.000000
  0.454545  0.181818  0.000000     24.000000
 -0.454545  0.181818  0.000000     24.000000
 -0.363636  0.181818  0.000000     24.000000
 -0.272727  0.181818  0.000000     24.000000
 -0.181818  0.181818  0.000000     12.000000
  0.272727  0.272727  0.000000      6.000000
  0.363636  0.272727  0.000000     24.000000
  0.454545  0.272727  0.000000     24.000000
 -0.454545  0.272727  0.000000     24.000000
 -0.363636  0.272727  0.000000     24.000000
 -0.272727  0.272727  0.000000     12.000000
  0.363636  0.363636  0.000000      6.000000
  0.454545  0.363636  0.000000     24.000000
 -0.454545  0.363636  0.000000     24.000000
 -0.363636  0.363636  0.000000     12.000000
  0.454545  0.454545  0.000000      6.000000
 -0.454545  0.454545  0.000000     12.000000
  0.272727  0.181818  0.090909     24.000000
  0.363636  0.181818  0.090909     48.000000
  0.454545  0.181818  0.090909     48.000000
 -0.454545  0.181818  0.090909     48.000000
  0.363636  0.272727  0.090909     24.000000
  0.454545  0.272727  0.090909     48.000000
 -0.454545  0.272727  0.090909     48.000000
 -0.363636  0.272727  0.090909     48.000000
 -0.272727  0.272727  0.090909     48.000000
 -0.181818  0.272727  0.090909     24.000000
  0.454545  0.363636  0.090909     24.000000
 -0.454545  0.363636  0.090909     48.000000
 -0.363636  0.363636  0.090909     48.000000
 -0.272727  0.363636  0.090909     24.000000
 -0.454545  0.454545  0.090909     24.000000
 -0.363636  0.454545  0.090909     24.000000
 -0.454545  0.363636  0.181818     24.000000
 -0.363636  0.363636  0.181818     48.000000
 -0.363636  0.454545  0.181818     24.000000
 -0.272727  0.454545  0.181818     24.000000
 
 Following cartesian coordinates:
            Coordinates               Weight
  0.000000  0.000000  0.000000      1.000000
 -0.090909  0.090909  0.090909      8.000000
 -0.181818  0.181818  0.181818      8.000000
 -0.272727  0.272727  0.272727      8.000000
 -0.363636  0.363636  0.363636      8.000000
 -0.454545  0.454545  0.454545      8.000000
  0.000000  0.000000  0.181818      6.000000
 -0.090909  0.090909  0.272727     24.000000
 -0.181818  0.181818  0.363636     24.000000
 -0.272727  0.272727  0.454545     24.000000
 -0.363636  0.363636  0.545455     24.000000
  0.545455 -0.545455 -0.363636     24.000000
  0.454545 -0.454545 -0.272727     24.000000
  0.363636 -0.363636 -0.181818     24.000000
  0.272727 -0.272727 -0.090909     24.000000
  0.181818 -0.181818  0.000000     12.000000
  0.000000  0.000000  0.363636      6.000000
 -0.090909  0.090909  0.454545     24.000000
 -0.181818  0.181818  0.545455     24.000000
 -0.272727  0.272727  0.636364     24.000000
  0.636364 -0.636364 -0.272727     24.000000
  0.545455 -0.545455 -0.181818     24.000000
  0.454545 -0.454545 -0.090909     24.000000
  0.363636 -0.363636  0.000000     12.000000
  0.000000  0.000000  0.545455      6.000000
 -0.090909  0.090909  0.636364     24.000000
 -0.181818  0.181818  0.727273     24.000000
  0.727273 -0.727273 -0.181818     24.000000
  0.636364 -0.636364 -0.090909     24.000000
  0.545455 -0.545455  0.000000     12.000000
  0.000000  0.000000  0.727273      6.000000
 -0.090909  0.090909  0.818182     24.000000
  0.818182 -0.818182 -0.090909     24.000000
  0.727273 -0.727273  0.000000     12.000000
  0.000000  0.000000  0.909091      6.000000
  0.909091 -0.909091 -0.000000     12.000000
 -0.000000  0.181818  0.363636     24.000000
 -0.090909  0.272727  0.454545     48.000000
 -0.181818  0.363636  0.545455     48.000000
  0.727273 -0.545455 -0.363636     48.000000
  0.000000  0.181818  0.545455     24.000000
 -0.090909  0.272727  0.636364     48.000000
  0.818182 -0.636364 -0.272727     48.000000
  0.727273 -0.545455 -0.181818     48.000000
  0.636364 -0.454545 -0.090909     48.000000
  0.545455 -0.363636  0.000000     24.000000
 -0.000000  0.181818  0.727273     24.000000
  0.909091 -0.727273 -0.181818     48.000000
  0.818182 -0.636364 -0.090909     48.000000
  0.727273 -0.545455  0.000000     24.000000
  1.000000 -0.818182 -0.090909     24.000000
  0.909091 -0.727273 -0.000000     24.000000
  1.000000 -0.636364 -0.272727     24.000000
  0.909091 -0.545455 -0.181818     48.000000
  1.000000 -0.636364 -0.090909     24.000000
  0.909091 -0.545455 -0.000000     24.000000
 


--------------------------------------------------------------------------------------------------------




 Dimension of arrays:
   k-points           NKPTS =     56   k-points in BZ     NKDIM =     56   number of bands    NBANDS=     10
   number of dos      NEDOS =    301   number of ions     NIONS =      2
   non local maximal  LDIM  =      4   non local SUM 2l+1 LMDIM =      8
   total plane-waves  NPLWV =   8000
   max r-space proj   IRMAX =      1   max aug-charges    IRDMAX=   6630
   dimension x,y,z NGX =    20 NGY =   20 NGZ =   20
   dimension x,y,z NGXF=    40 NGYF=   40 NGZF=   40
   support grid    NGXF=    40 NGYF=   40 NGZF=   40
   ions per type =               2
 NGX,Y,Z   is equivalent  to a cutoff of   8.55,  8.55,  8.55 a.u.
 NGXF,Y,Z  is equivalent  to a cutoff of  17.10, 17.10, 17.10 a.u.


 I would recommend the setting:
   dimension x,y,z NGX =    20 NGY =   20 NGZ =   20
 SYSTEM =  diamond Si                              
 POSCAR =  Si dia                                  

 Startparameter for this run:
   NWRITE =      2    write-flag & timer
   PREC   = accura    normal or accurate (medium, high low for compatibility)
   ISTART =      0    job   : 0-new  1-cont  2-samecut
   ICHARG =      2    charge: 1-file 2-atom 10-const
   ISPIN  =      1    spin polarized calculation?
   LNONCOLLINEAR =      F non collinear calculations
   LSORBIT =      F    spin-orbit coupling
   INIWAV =      1    electr: 0-lowe 1-rand  2-diag
   LASPH  =      F    aspherical Exc in radial PAW
   METAGGA=      F    non-selfconsistent MetaGGA calc.

 Electronic Relaxation 1
   ENCUT  =  240.0 eV  17.64 Ry    4.20 a.u.   4.91  4.91  4.91*2*pi/ulx,y,z
   ENINI  =  240.0     initial cutoff
   ENAUG  =  322.1 eV  augmentation charge cutoff
   NELM   =     60;   NELMIN=  0; NELMDL=  3     # of ELM steps 
   EDIFF  = 0.1E-03   stopping-criterion for ELM
   LREAL  =      F    real-space projection
   NLSPLINE    = F    spline interpolate recip. space projectors
   LCOMPAT=      F    compatible to vasp.4.4
   GGA_COMPAT  = T    GGA compatible to vasp.4.4-vasp.4.6
   LMAXPAW     = -100 max onsite density
   LMAXMIX     =    2 max onsite mixed and CHGCAR
   VOSKOWN=      0    Vosko Wilk Nusair interpolation
   ROPT   =    0.00000
 Ionic relaxation
   EDIFFG = -.1E-01   stopping-criterion for IOM
   NSW    =      9    number of steps for IOM
   NBLOCK =      1;   KBLOCK =      9    inner block; outer block 
   IBRION =      2    ionic relax: 0-MD 1-quasi-New 2-CG
   NFREE  =      1    steps in history (QN), initial steepest desc. (CG)
   ISIF   =      3    stress and relaxation
   IWAVPR =     11    prediction:  0-non 1-charg 2-wave 3-comb
   ISYM   =      2    0-nonsym 1-usesym 2-fastsym
   LCORR  =      T    Harris-Foulkes like correction to forces

   POTIM  = 1.0000    time-step for ionic-motion
   TEIN   =    0.0    initial temperature
   TEBEG  =    0.0;   TEEND  =   0.0 temperature during run
   SMASS  =  -3.00    Nose mass-parameter (am)
   estimated Nose-frequenzy (Omega)   =  0.10E-29 period in steps =****** mass=  -0.346E-27a.u.
   SCALEE = 1.0000    scale energy and forces
   NPACO  =    256;   APACO  = 16.0  distance and # of slots for P.C.
   PSTRESS=    0.0 pullay stress

  Mass of Ions in am
   POMASS =  28.09
  Ionic Valenz
   ZVAL   =   4.00
  Atomic Wigner-Seitz radii
   RWIGS  =  -1.00
  virtual crystal weights 
   VCA    =   1.00
   NELECT =       8.0000    total number of electrons
   NUPDOWN=      -1.0000    fix difference up-down

 DOS related values:
   EMIN   =  10.00;   EMAX   =-10.00  energy-range for DOS
   EFERMI =   0.00
   ISMEAR =     0;   SIGMA  =   0.10  broadening in eV -4-tet -1-fermi 0-gaus

 Electronic relaxation 2 (details)
   IALGO  =     38    algorithm
   LDIAG  =      T    sub-space diagonalisation (order eigenvalues)
   LSUBROT=      F    optimize rotation matrix (better conditioning)
   TURBO    =      0    0=normal 1=particle mesh
   IRESTART =      0    0=no restart 2=restart with 2 vectors
   NREBOOT  =      0    no. of reboots
   NMIN     =      0    reboot dimension
   EREF     =   0.00    reference energy to select bands
   IMIX   =      4    mixing-type and parameters
     AMIX     =   0.40;   BMIX     =  1.00
     AMIX_MAG =   1.60;   BMIX_MAG =  1.00
     AMIN     =   0.10
     WC   =   100.;   INIMIX=   1;  MIXPRE=   1;  MAXMIX= -45

 Intra band minimization:
   WEIMIN = 0.0010     energy-eigenvalue tresh-hold
   EBREAK =  0.25E-05  absolut break condition
   DEPER  =   0.30     relativ break condition  

   TIME   =   0.40     timestep for ELM

  volume/ion in A,a.u.               =      20.80       140.34
  Fermi-wavevector in a.u.,A,eV,Ry     =   0.944993  1.785779 12.150174  0.893013
  Thomas-Fermi vector in A             =   2.072852
 
 Write flags
   LWAVE  =      T    write WAVECAR
   LCHARG =      T    write CHGCAR
   LVTOT  =      F    write LOCPOT, total local potential
   LVHAR  =      F    write LOCPOT, Hartree potential only
   LELF   =      F    write electronic localiz. function (ELF)
   LORBIT =      0    0 simple, 1 ext, 2 COOP (PROOUT)


 Dipole corrections
   LMONO  =      F    monopole corrections only (constant potential shift)
   LDIPOL =      F    correct potential (dipole corrections)
   IDIPOL =      0    1-x, 2-y, 3-z, 4-all directions 
   EPSILON=  1.0000000 bulk dielectric constant

 Exchange correlation treatment:
   GGA     =    --    GGA type
   LEXCH   =     8    internal setting for exchange type
   VOSKOWN=      0    Vosko Wilk Nusair interpolation
   LHFCALC =     F    Hartree Fock is set to
   LHFONE  =     F    Hartree Fock one center treatment
   AEXX    =    0.0000 exact exchange contribution

 Linear response parameters
   LEPSILON=     F    determine dielectric tensor
   LRPA    =     F    only Hartree local field effects (RPA)
   LNABLA  =     F    use nabla operator in PAW spheres
   LVEL    =     F    velocity operator in full k-point grid
   LINTERFAST=   F  fast interpolation
   KINTER  =     0    interpolate to denser k-point grid
   CSHIFT  =0.1000    complex shift for real part using Kramers Kronig
   OMEGAMAX=  -1.0    maximum frequency
   DEG_THRESHOLD= 0.2000000E-02 threshold for treating states as degnerate
   RTIME   =    0.100 relaxation time in fs

 Orbital magnetization related:
   ORBITALMAG=     F  switch on orbital magnetization
   LCHIMAG   =     F  perturbation theory with respect to B field
   DQ        =  0.001000  dq finite difference perturbation B field



--------------------------------------------------------------------------------------------------------


 conjugate gradient relaxation of ions
 charge density and potential will be updated during run
 non-spin polarized calculation
 Variant of blocked Davidson
 Davidson routine will perform the subspace rotation
 perform sub-space diagonalisation
    after iterative eigenvector-optimisation
 modified Broyden-mixing scheme, WC =      100.0
 initial mixing is a Kerker type mixing with AMIX =  0.4000 and BMIX =      1.0000
 Hartree-type preconditioning will be used
 using additional bands            6
 reciprocal scheme for non local part
 use partial core corrections
 calculate Harris-corrections to forces 
   (improved forces if not selfconsistent)
 use gradient corrections 
 use of overlap-Matrix (Vanderbilt PP)
 Gauss-broadening in eV      SIGMA  =   0.10


--------------------------------------------------------------------------------------------------------


  energy-cutoff  :      240.00
  volume of cell :       41.59
      direct lattice vectors                 reciprocal lattice vectors
     0.000000000  2.750000000  2.750000000    -0.181818182  0.181818182  0.181818182
     2.750000000  0.000000000  2.750000000     0.181818182 -0.181818182  0.181818182
     2.750000000  2.750000000  0.000000000     0.181818182  0.181818182 -0.181818182

  length of vectors
     3.889087297  3.889087297  3.889087297     0.314918329  0.314918329  0.314918329


 
 k-points in units of 2pi/SCALE and weight: k-points                                
   0.00000000  0.00000000  0.00000000       0.001
  -0.09090909  0.09090909  0.09090909       0.006
  -0.18181818  0.18181818  0.18181818       0.006
  -0.27272727  0.27272727  0.27272727       0.006
  -0.36363636  0.36363636  0.36363636       0.006
  -0.45454545  0.45454545  0.45454545       0.006
   0.00000000  0.00000000  0.18181818       0.005
  -0.09090909  0.09090909  0.27272727       0.018
  -0.18181818  0.18181818  0.36363636       0.018
  -0.27272727  0.27272727  0.45454545       0.018
  -0.36363636  0.36363636  0.54545455       0.018
   0.54545455 -0.54545455 -0.36363636       0.018
   0.45454545 -0.45454545 -0.27272727       0.018
   0.36363636 -0.36363636 -0.18181818       0.018
   0.27272727 -0.27272727 -0.09090909       0.018
   0.18181818 -0.18181818  0.00000000       0.009
   0.00000000  0.00000000  0.36363636       0.005
  -0.09090909  0.09090909  0.45454545       0.018
  -0.18181818  0.18181818  0.54545455       0.018
  -0.27272727  0.27272727  0.63636364       0.018
   0.63636364 -0.63636364 -0.27272727       0.018
   0.54545455 -0.54545455 -0.18181818       0.018
   0.45454545 -0.45454545 -0.09090909       0.018
   0.36363636 -0.36363636  0.00000000       0.009
   0.00000000  0.00000000  0.54545455       0.005
  -0.09090909  0.09090909  0.63636364       0.018
  -0.18181818  0.18181818  0.72727273       0.018
   0.72727273 -0.72727273 -0.18181818       0.018
   0.63636364 -0.63636364 -0.09090909       0.018
   0.54545455 -0.54545455  0.00000000       0.009
   0.00000000  0.00000000  0.72727273       0.005
  -0.09090909  0.09090909  0.81818182       0.018
   0.81818182 -0.81818182 -0.09090909       0.018
   0.72727273 -0.72727273  0.00000000       0.009
   0.00000000  0.00000000  0.90909091       0.005
   0.90909091 -0.90909091 -0.00000000       0.009
  -0.00000000  0.18181818  0.36363636       0.018
  -0.09090909  0.27272727  0.45454545       0.036
  -0.18181818  0.36363636  0.54545455       0.036
   0.72727273 -0.54545455 -0.36363636       0.036
   0.00000000  0.18181818  0.54545455       0.018
  -0.09090909  0.27272727  0.63636364       0.036
   0.81818182 -0.63636364 -0.27272727       0.036
   0.72727273 -0.54545455 -0.18181818       0.036
   0.63636364 -0.45454545 -0.09090909       0.036
   0.54545455 -0.36363636  0.00000000       0.018
  -0.00000000  0.18181818  0.72727273       0.018
   0.90909091 -0.72727273 -0.18181818       0.036
   0.81818182 -0.63636364 -0.09090909       0.036
   0.72727273 -0.54545455  0.00000000       0.018
   1.00000000 -0.81818182 -0.09090909       0.018
   0.90909091 -0.72727273 -0.00000000       0.018
   1.00000000 -0.63636364 -0.27272727       0.018
   0.90909091 -0.54545455 -0.18181818       0.036
   1.00000000 -0.63636364 -0.09090909       0.018
   0.90909091 -0.54545455 -0.00000000       0.018
 
 k-points in reciprocal lattice and weights: k-points                                
   0.00000000  0.00000000  0.00000000       0.001
   0.09090909  0.00000000  0.00000000       0.006
   0.18181818  0.00000000  0.00000000       0.006
   0.27272727  0.00000000  0.00000000       0.006
   0.36363636  0.00000000  0.00000000       0.006
   0.45454545  0.00000000  0.00000000       0.006
   0.09090909  0.09090909  0.00000000       0.005
   0.18181818  0.09090909  0.00000000       0.018
   0.27272727  0.09090909  0.00000000       0.018
   0.36363636  0.09090909  0.00000000       0.018
   0.45454545  0.09090909  0.00000000       0.018
  -0.45454545  0.09090909  0.00000000       0.018
  -0.36363636  0.09090909  0.00000000       0.018
  -0.27272727  0.09090909  0.00000000       0.018
  -0.18181818  0.09090909  0.00000000       0.018
  -0.09090909  0.09090909  0.00000000       0.009
   0.18181818  0.18181818  0.00000000       0.005
   0.27272727  0.18181818  0.00000000       0.018
   0.36363636  0.18181818  0.00000000       0.018
   0.45454545  0.18181818  0.00000000       0.018
  -0.45454545  0.18181818  0.00000000       0.018
  -0.36363636  0.18181818  0.00000000       0.018
  -0.27272727  0.18181818  0.00000000       0.018
  -0.18181818  0.18181818  0.00000000       0.009
   0.27272727  0.27272727  0.00000000       0.005
   0.36363636  0.27272727  0.00000000       0.018
   0.45454545  0.27272727  0.00000000       0.018
  -0.45454545  0.27272727  0.00000000       0.018
  -0.36363636  0.27272727  0.00000000       0.018
  -0.27272727  0.27272727  0.00000000       0.009
   0.36363636  0.36363636  0.00000000       0.005
   0.45454545  0.36363636  0.00000000       0.018
  -0.45454545  0.36363636  0.00000000       0.018
  -0.36363636  0.36363636  0.00000000       0.009
   0.45454545  0.45454545  0.00000000       0.005
  -0.45454545  0.45454545  0.00000000       0.009
   0.27272727  0.18181818  0.09090909       0.018
   0.36363636  0.18181818  0.09090909       0.036
   0.45454545  0.18181818  0.09090909       0.036
  -0.45454545  0.18181818  0.09090909       0.036
   0.36363636  0.27272727  0.09090909       0.018
   0.45454545  0.27272727  0.09090909       0.036
  -0.45454545  0.27272727  0.09090909       0.036
  -0.36363636  0.27272727  0.09090909       0.036
  -0.27272727  0.27272727  0.09090909       0.036
  -0.18181818  0.27272727  0.09090909       0.018
   0.45454545  0.36363636  0.09090909       0.018
  -0.45454545  0.36363636  0.09090909       0.036
  -0.36363636  0.36363636  0.09090909       0.036
  -0.27272727  0.36363636  0.09090909       0.018
  -0.45454545  0.45454545  0.09090909       0.018
  -0.36363636  0.45454545  0.09090909       0.018
  -0.45454545  0.36363636  0.18181818       0.018
  -0.36363636  0.36363636  0.18181818       0.036
  -0.36363636  0.45454545  0.18181818       0.018
  -0.27272727  0.45454545  0.18181818       0.018
 
 position of ions in fractional coordinates (direct lattice) 
   0.87500000  0.87500000  0.87500000
   0.12500000  0.12500000  0.12500000
 
 position of ions in cartesian coordinates  (Angst):
   4.81250000  4.81250000  4.81250000
   0.68750000  0.68750000  0.68750000
 


--------------------------------------------------------------------------------------------------------


 k-point  1 :   0.0000 0.0000 0.0000  plane waves:     339
 k-point  2 :   0.0909 0.0000 0.0000  plane waves:     335
 k-point  3 :   0.1818 0.0000 0.0000  plane waves:     344
 k-point  4 :   0.2727 0.0000 0.0000  plane waves:     350
 k-point  5 :   0.3636 0.0000 0.0000  plane waves:     353
 k-point  6 :   0.4545 0.0000 0.0000  plane waves:     356
 k-point  7 :   0.0909 0.0909 0.0000  plane waves:     335
 k-point  8 :   0.1818 0.0909 0.0000  plane waves:     345
 k-point  9 :   0.2727 0.0909 0.0000  plane waves:     343
 k-point 10 :   0.3636 0.0909 0.0000  plane waves:     349
 k-point 11 :   0.4545 0.0909 0.0000  plane waves:     347
 k-point 12 :  -0.4545 0.0909 0.0000  plane waves:     353
 k-point 13 :  -0.3636 0.0909 0.0000  plane waves:     352
 k-point 14 :  -0.2727 0.0909 0.0000  plane waves:     348
 k-point 15 :  -0.1818 0.0909 0.0000  plane waves:     351
 k-point 16 :  -0.0909 0.0909 0.0000  plane waves:     343
 k-point 17 :   0.1818 0.1818 0.0000  plane waves:     347
 k-point 18 :   0.2727 0.1818 0.0000  plane waves:     348
 k-point 19 :   0.3636 0.1818 0.0000  plane waves:     349
 k-point 20 :   0.4545 0.1818 0.0000  plane waves:     348
 k-point 21 :  -0.4545 0.1818 0.0000  plane waves:     360
 k-point 22 :  -0.3636 0.1818 0.0000  plane waves:     354
 k-point 23 :  -0.2727 0.1818 0.0000  plane waves:     351
 k-point 24 :  -0.1818 0.1818 0.0000  plane waves:     349
 k-point 25 :   0.2727 0.2727 0.0000  plane waves:     347
 k-point 26 :   0.3636 0.2727 0.0000  plane waves:     341
 k-point 27 :   0.4545 0.2727 0.0000  plane waves:     346
 k-point 28 :  -0.4545 0.2727 0.0000  plane waves:     359
 k-point 29 :  -0.3636 0.2727 0.0000  plane waves:     358
 k-point 30 :  -0.2727 0.2727 0.0000  plane waves:     351
 k-point 31 :   0.3636 0.3636 0.0000  plane waves:     351
 k-point 32 :   0.4545 0.3636 0.0000  plane waves:     348
 k-point 33 :  -0.4545 0.3636 0.0000  plane waves:     358
 k-point 34 :  -0.3636 0.3636 0.0000  plane waves:     351
 k-point 35 :   0.4545 0.4545 0.0000  plane waves:     343
 k-point 36 :  -0.4545 0.4545 0.0000  plane waves:     347
 k-point 37 :   0.2727 0.1818 0.0909  plane waves:     349
 k-point 38 :   0.3636 0.1818 0.0909  plane waves:     343
 k-point 39 :   0.4545 0.1818 0.0909  plane waves:     348
 k-point 40 :  -0.4545 0.1818 0.0909  plane waves:     354
 k-point 41 :   0.3636 0.2727 0.0909  plane waves:     346
 k-point 42 :   0.4545 0.2727 0.0909  plane waves:     345
 k-point 43 :  -0.4545 0.2727 0.0909  plane waves:     355
 k-point 44 :  -0.3636 0.2727 0.0909  plane waves:     359
 k-point 45 :  -0.2727 0.2727 0.0909  plane waves:     355
 k-point 46 :  -0.1818 0.2727 0.0909  plane waves:     350
 k-point 47 :   0.4545 0.3636 0.0909  plane waves:     342
 k-point 48 :  -0.4545 0.3636 0.0909  plane waves:     349
 k-point 49 :  -0.3636 0.3636 0.0909  plane waves:     356
 k-point 50 :  -0.2727 0.3636 0.0909  plane waves:     355
 k-point 51 :  -0.4545 0.4545 0.0909  plane waves:     357
 k-point 52 :  -0.3636 0.4545 0.0909  plane waves:     357
 k-point 53 :  -0.4545 0.3636 0.1818  plane waves:     349
 k-point 54 :  -0.3636 0.3636 0.1818  plane waves:     359
 k-point 55 :  -0.3636 0.4545 0.1818  plane waves:     355
 k-point 56 :  -0.2727 0.4545 0.1818  plane waves:     355

 maximum and minimum number of plane-waves per node :        50       37

 maximum number of plane-waves:       360
 maximum index in each direction: 
   IXMAX=    5   IYMAX=    4   IZMAX=    4
   IXMIN=   -5   IYMIN=   -5   IZMIN=   -5

 WARNING: aliasing errors must be expected set NGX to  22 to avoid them
 NGY is ok and might be reduce to  20
 NGZ is ok and might be reduce to  20
 aliasing errors are usually negligible using standard VASP settings
 and one can safely disregard these warnings

 total amount of memory used by VASP on root node    30473. kBytes
========================================================================

   base      :      30000. kBytes
   nonl-proj :        162. kBytes
   fftplans  :         90. kBytes
   grid      :        120. kBytes
   one-center:          3. kBytes
   wavefun   :         98. kBytes
 
     INWAV:  cpu time    0.0000: real time    0.0000
 Broyden mixing: mesh for mixing (old mesh)
   NGX =  9   NGY =  9   NGZ =  9
  (NGX  = 40   NGY  = 40   NGZ  = 40)
  gives a total of    729 points

 initial charge density was supplied:
 charge density of overlapping atoms calculated
 number of electron       8.0000000 magnetization 
 keeping initial charge density in first step


--------------------------------------------------------------------------------------------------------


 Maximum index for augmentation-charges          321 (set IRDMAX)


--------------------------------------------------------------------------------------------------------


 First call to EWALD:  gamma=   0.512
 Maximum number of real-space cells 3x 3x 3
 Maximum number of reciprocal cells 3x 3x 3

 FEWALD executed in parallel
    FEWALD:  cpu time    0.0013: real time    0.0013


----------------------------------------- Iteration    1(   1)  ---------------------------------------


    POTLOK:  cpu time    0.0129: real time    0.0293
    SETDIJ:  cpu time    0.0016: real time    0.0018
     EDDAV:  cpu time    0.6654: real time    0.7284
       DOS:  cpu time    0.0006: real time    0.0006
    --------------------------------------------
      LOOP:  cpu time    0.6819: real time    0.7636

 eigenvalue-minimisations  :  1150
 total energy-change (2. order) :-0.4630191E+01  (-0.2026599E+03)
 number of electron       8.0000000 magnetization 
 augmentation part        8.0000000 magnetization 

 Free energy of the ion-electron system (eV)
  ---------------------------------------------------
  alpha Z        PSCENC =         3.23732588
  Ewald energy   TEWEN  =      -225.65453461
  -Hartree energ DENC   =       -11.58535014
  -exchange      EXHF   =         0.00000000
  -V(xc)+E(xc)   XCENC  =       -18.75122067
  PAW double counting   =       176.24759923     -141.06103558
  entropy T*S    EENTRO =        -0.00079688
  eigenvalues    EBANDS =         6.81626821
  atomic energy  EATOM  =       206.12155316
  Solvation  Ediel_sol  =         0.00000000
  ---------------------------------------------------
  free energy    TOTEN  =        -4.63019140 eV

  energy without entropy =       -4.62939452  energy(sigma->0) =       -4.62979296


--------------------------------------------------------------------------------------------------------




----------------------------------------- Iteration    1(   2)  ---------------------------------------


     EDDAV:  cpu time    0.1908: real time    0.2467
       DOS:  cpu time    0.0003: real time    0.0003
    --------------------------------------------
      LOOP:  cpu time    0.1916: real time    0.2612

 eigenvalue-minimisations  :  1820
 total energy-change (2. order) :-0.6305695E+01  (-0.6169476E+01)
 number of electron       8.0000000 magnetization 
 augmentation part        8.0000000 magnetization 

 Free energy of the ion-electron system (eV)
  ---------------------------------------------------
  alpha Z        PSCENC =         3.23732588
  Ewald energy   TEWEN  =      -225.65453461
  -Hartree energ DENC   =       -11.58535014
  -exchange      EXHF   =         0.00000000
  -V(xc)+E(xc)   XCENC  =       -18.75122067
  PAW double counting   =       176.24759923     -141.06103558
  entropy T*S    EENTRO =        -0.00000000
  eigenvalues    EBANDS =         0.50977653
  atomic energy  EATOM  =       206.12155316
  Solvation  Ediel_sol  =         0.00000000
  ---------------------------------------------------
  free energy    TOTEN  =       -10.93588620 eV

  energy without entropy =      -10.93588620  energy(sigma->0) =      -10.93588620


--------------------------------------------------------------------------------------------------------




----------------------------------------- Iteration    1(   3)  ---------------------------------------


     EDDAV:  cpu time    0.1418: real time    0.1854
       DOS:  cpu time    0.0004: real time    0.0004
    CHARGE:  cpu time    0.0105: real time    0.0164
    MIXING:  cpu time    0.0015: real time    0.0016
    --------------------------------------------
      LOOP:  cpu time    0.1546: real time    0.2072

 eigenvalue-minimisations  :  1370
 total energy-change (2. order) :-0.4474578E-01  (-0.4474578E-01)
 number of electron       7.9999997 magnetization 
 augmentation part       -0.4671857 magnetization 

 Broyden mixing:
  rms(total) = 0.51993E+00    rms(broyden)= 0.51991E+00
  rms(prec ) = 0.93837E+00
  weight for this iteration     100.00

 Free energy of the ion-electron system (eV)
  ---------------------------------------------------
  alpha Z        PSCENC =         3.23732588
  Ewald energy   TEWEN  =      -225.65453461
  -Hartree energ DENC   =       -11.58535014
  -exchange      EXHF   =         0.00000000
  -V(xc)+E(xc)   XCENC  =       -18.75122067
  PAW double counting   =       176.24759923     -141.06103558
  entropy T*S    EENTRO =        -0.00000000
  eigenvalues    EBANDS =         0.46503075
  atomic energy  EATOM  =       206.12155316
  Solvation  Ediel_sol  =         0.00000000
  ---------------------------------------------------
  free energy    TOTEN  =       -10.98063198 eV

  energy without entropy =      -10.98063198  energy(sigma->0) =      -10.98063198


--------------------------------------------------------------------------------------------------------




----------------------------------------- Iteration    1(   4)  ---------------------------------------


    POTLOK:  cpu time    0.0029: real time    0.0029
    SETDIJ:  cpu time    0.0012: real time    0.0012
     EDDAV:  cpu time    0.1336: real time    0.1390
       DOS:  cpu time    0.0003: real time    0.0003
    CHARGE:  cpu time    0.0059: real time    0.0064
    MIXING:  cpu time    0.0008: real time    0.0008
    --------------------------------------------
      LOOP:  cpu time    0.1450: real time    0.1553

 eigenvalue-minimisations  :  1550
 total energy-change (2. order) : 0.1083018E+00  (-0.7055422E-02)
 number of electron       7.9999997 magnetization 
 augmentation part       -0.4619890 magnetization 

 Broyden mixing:
  rms(total) = 0.31600E+00    rms(broyden)= 0.31600E+00
  rms(prec ) = 0.56020E+00
  weight for this iteration     100.00

 eigenvalues of (default mixing * dielectric matrix)
  average eigenvalue GAMMA=   2.5436
  2.5436

 Free energy of the ion-electron system (eV)
  ---------------------------------------------------
  alpha Z        PSCENC =         3.23732588
  Ewald energy   TEWEN  =      -225.65453461
  -Hartree energ DENC   =       -13.01571900
  -exchange      EXHF   =         0.00000000
  -V(xc)+E(xc)   XCENC  =       -18.52129860
  PAW double counting   =       406.54045240     -371.45270174
  entropy T*S    EENTRO =        -0.00000000
  eigenvalues    EBANDS =         1.87259230
  atomic energy  EATOM  =       206.12155316
  Solvation  Ediel_sol  =         0.00000000
  ---------------------------------------------------
  free energy    TOTEN  =       -10.87233023 eV

  energy without entropy =      -10.87233023  energy(sigma->0) =      -10.87233023


--------------------------------------------------------------------------------------------------------




----------------------------------------- Iteration    1(   5)  ---------------------------------------


    POTLOK:  cpu time    0.0028: real time    0.0028
    SETDIJ:  cpu time    0.0011: real time    0.0011
     EDDAV:  cpu time    0.8733: real time    0.8827
       DOS:  cpu time    0.0004: real time    0.0004
    CHARGE:  cpu time    0.0063: real time    0.0064
    MIXING:  cpu time    0.0006: real time    0.0006
    --------------------------------------------
      LOOP:  cpu time    0.8850: real time    0.8974

 eigenvalue-minimisations  :  1440
 total energy-change (2. order) : 0.5054486E-01  (-0.1351860E-01)
 number of electron       7.9999997 magnetization 
 augmentation part       -0.4556812 magnetization 

 Broyden mixing:
  rms(total) = 0.15787E-01    rms(broyden)= 0.15786E-01
  rms(prec ) = 0.37989E-01
  weight for this iteration     100.00

 eigenvalues of (default mixing * dielectric matrix)
  average eigenvalue GAMMA=   2.0246
  1.6333  2.4160

 Free energy of the ion-electron system (eV)
  ---------------------------------------------------
  alpha Z        PSCENC =         3.23732588
  Ewald energy   TEWEN  =      -225.65453461
  -Hartree energ DENC   =       -15.37978185
  -exchange      EXHF   =         0.00000000
  -V(xc)+E(xc)   XCENC  =       -18.13623425
  PAW double counting   =       970.24415213     -935.28463883
  entropy T*S    EENTRO =        -0.00000001
  eigenvalues    EBANDS =         4.03037303
  atomic energy  EATOM  =       206.12155316
  Solvation  Ediel_sol  =         0.00000000
  ---------------------------------------------------
  free energy    TOTEN  =       -10.82178537 eV

  energy without entropy =      -10.82178536  energy(sigma->0) =      -10.82178536


--------------------------------------------------------------------------------------------------------




----------------------------------------- Iteration    1(   6)  ---------------------------------------


    POTLOK:  cpu time    0.0046: real time    0.0067
    SETDIJ:  cpu time    0.0037: real time    0.0039
     EDDAV:  cpu time    0.1059: real time    0.1111
       DOS:  cpu time    0.0004: real time    0.0004
    CHARGE:  cpu time    0.0046: real time    0.0051
    MIXING:  cpu time    0.0008: real time    0.0008
    --------------------------------------------
      LOOP:  cpu time    0.1206: real time    0.1316

 eigenvalue-minimisations  :  1330
 total energy-change (2. order) :-0.1061019E-02  (-0.3085311E-03)
 number of electron       7.9999997 magnetization 
 augmentation part       -0.4564305 magnetization 

 Broyden mixing:
  rms(total) = 0.76889E-02    rms(broyden)= 0.76886E-02
  rms(prec ) = 0.13629E-01
  weight for this iteration     100.00

 eigenvalues of (default mixing * dielectric matrix)
  average eigenvalue GAMMA=   2.3092
  3.0788  1.9244  1.9244

 Free energy of the ion-electron system (eV)
  ---------------------------------------------------
  alpha Z        PSCENC =         3.23732588
  Ewald energy   TEWEN  =      -225.65453461
  -Hartree energ DENC   =       -15.31513293
  -exchange      EXHF   =         0.00000000
  -V(xc)+E(xc)   XCENC  =       -18.13700321
  PAW double counting   =       970.92787994     -935.94342906
  entropy T*S    EENTRO =        -0.00000001
  eigenvalues    EBANDS =         3.94049447
  atomic energy  EATOM  =       206.12155316
  Solvation  Ediel_sol  =         0.00000000
  ---------------------------------------------------
  free energy    TOTEN  =       -10.82284638 eV

  energy without entropy =      -10.82284638  energy(sigma->0) =      -10.82284638


--------------------------------------------------------------------------------------------------------




----------------------------------------- Iteration    1(   7)  ---------------------------------------


    POTLOK:  cpu time    0.0023: real time    0.0023
    SETDIJ:  cpu time    0.0012: real time    0.0012
     EDDAV:  cpu time    0.1264: real time    0.1274
       DOS:  cpu time    0.0004: real time    0.0004
    CHARGE:  cpu time    0.0052: real time    0.0052
    MIXING:  cpu time    0.0005: real time    0.0005
    --------------------------------------------
      LOOP:  cpu time    0.1363: real time    0.1403

 eigenvalue-minimisations  :  1640
 total energy-change (2. order) :-0.2163199E-03  (-0.2238950E-04)
 number of electron       7.9999997 magnetization 
 augmentation part       -0.4565650 magnetization 

 Broyden mixing:
  rms(total) = 0.56156E-02    rms(broyden)= 0.56155E-02
  rms(prec ) = 0.63547E-02
  weight for this iteration     100.00

 eigenvalues of (default mixing * dielectric matrix)
  average eigenvalue GAMMA=   2.0267
  2.7222  2.2635  2.2635  0.8573

 Free energy of the ion-electron system (eV)
  ---------------------------------------------------
  alpha Z        PSCENC =         3.23732588
  Ewald energy   TEWEN  =      -225.65453461
  -Hartree energ DENC   =       -15.36059189
  -exchange      EXHF   =         0.00000000
  -V(xc)+E(xc)   XCENC  =       -18.12779707
  PAW double counting   =       976.70534546     -941.71710454
  entropy T*S    EENTRO =        -0.00000000
  eigenvalues    EBANDS =         3.97274092
  atomic energy  EATOM  =       206.12155316
  Solvation  Ediel_sol  =         0.00000000
  ---------------------------------------------------
  free energy    TOTEN  =       -10.82306270 eV

  energy without entropy =      -10.82306270  energy(sigma->0) =      -10.82306270


--------------------------------------------------------------------------------------------------------




----------------------------------------- Iteration    1(   8)  ---------------------------------------


    POTLOK:  cpu time    0.0022: real time    0.0022
    SETDIJ:  cpu time    0.0011: real time    0.0011
     EDDAV:  cpu time    0.0687: real time    0.0689
       DOS:  cpu time    0.0004: real time    0.0004
    --------------------------------------------
      LOOP:  cpu time    0.0728: real time    0.0757

 eigenvalue-minimisations  :   840
 total energy-change (2. order) :-0.1556583E-04  (-0.1247962E-05)
 number of electron       7.9999997 magnetization 
 augmentation part       -0.4565650 magnetization 

 Free energy of the ion-electron system (eV)
  ---------------------------------------------------
  alpha Z        PSCENC =         3.23732588
  Ewald energy   TEWEN  =      -225.65453461
  -Hartree energ DENC   =       -15.36575064
  -exchange      EXHF   =         0.00000000
  -V(xc)+E(xc)   XCENC  =       -18.12818446
  PAW double counting   =       966.17917645     -931.19150328
  entropy T*S    EENTRO =        -0.00000000
  eigenvalues    EBANDS =         3.97883925
  atomic energy  EATOM  =       206.12155316
  Solvation  Ediel_sol  =         0.00000000
  ---------------------------------------------------
  free energy    TOTEN  =       -10.82307827 eV

  energy without entropy =      -10.82307827  energy(sigma->0) =      -10.82307827


--------------------------------------------------------------------------------------------------------




 average (electrostatic) potential at core
  the test charge radii are     0.9892
  (the norm of the test charge is              1.0000)
       1 -83.6743       2 -83.6743
 
 
 
 E-fermi :   5.7909     XC(G=0):  -9.2625     alpha+bet :-11.5327


 k-point     1 :       0.0000    0.0000    0.0000
  band No.  band energies     occupation 
      1      -6.2529      2.00000
      2       5.4593      2.00000
      3       5.4593      2.00000
      4       5.4593      2.00000
      5       8.0112      0.00000
      6       8.0112      0.00000
      7       8.0112      0.00000
      8       8.3876      0.00000
      9      13.2310      0.00000
     10      13.2570      0.00000

 k-point     2 :       0.0909    0.0000    0.0000
  band No.  band energies     occupation 
      1      -6.1480      2.00000
      2       4.4713      2.00000
      3       5.2984      2.00000
      4       5.2984      2.00000
      5       7.9591      0.00000
      6       8.2499      0.00000
      7       8.2499      0.00000
      8       9.2589      0.00000
      9      12.9257      0.00000
     10      12.9257      0.00000

 k-point     3 :       0.1818    0.0000    0.0000
  band No.  band energies     occupation 
      1      -5.8380      2.00000
      2       2.8218      2.00000
      3       4.9657      2.00000
      4       4.9657      2.00000
      5       7.6246      0.00000
      6       8.7135      0.00000
      7       8.7135      0.00000
      8      10.8650      0.00000
      9      12.5695      0.00000
     10      12.5695      0.00000

 k-point     4 :       0.2727    0.0000    0.0000
  band No.  band energies     occupation 
      1      -5.3394      2.00000
      2       1.2034      2.00000
      3       4.6483      2.00000
      4       4.6483      2.00000
      5       7.2788      0.00000
      6       8.9743      0.00000
      7       8.9743      0.00000
      8      12.4435      0.00000
      9      12.8246      0.00000
     10      12.8246      0.00000

 k-point     5 :       0.3636    0.0000    0.0000
  band No.  band energies     occupation 
      1      -4.7038      2.00000
      2      -0.2108      2.00000
      3       4.4205      2.00000
      4       4.4205      2.00000
      5       7.0192      0.00000
      6       8.9381      0.00000
      7       8.9381      0.00000
      8      13.2498      0.00000
      9      13.8452      0.00000
     10      13.8452      0.00000

 k-point     6 :       0.4545    0.0000    0.0000
  band No.  band energies     occupation 
      1      -4.1216      2.00000
      2      -1.1885      2.00000
      3       4.3040      2.00000
      4       4.3040      2.00000
      5       6.8831      0.00000
      6       8.8435      0.00000
      7       8.8435      0.00000
      8      13.1567      0.00000
      9      15.3526      0.00000
     10      15.3526      0.00000

 k-point     7 :       0.0909    0.0909    0.0000
  band No.  band energies     occupation 
      1      -6.1129      2.00000
      2       4.6226      2.00000
      3       4.9857      2.00000
      4       4.9857      2.00000
      5       7.7013      0.00000
      6       8.6589      0.00000
      7       8.6589      0.00000
      8       9.1600      0.00000
      9      12.3667      0.00000
     10      13.3875      0.00000

 k-point     8 :       0.1818    0.0909    0.0000
  band No.  band energies     occupation 
      1      -5.8705      2.00000
      2       3.2967      2.00000
      3       4.5996      2.00000
      4       4.7632      2.00000
      5       7.7309      0.00000
      6       8.6379      0.00000
      7       9.2362      0.00000
      8      10.2330      0.00000
      9      12.0539      0.00000
     10      13.3395      0.00000

 k-point     9 :       0.2727    0.0909    0.0000
  band No.  band energies     occupation 
      1      -5.4321      2.00000
      2       1.7180      2.00000
      3       4.2874      2.00000
      4       4.3966      2.00000
      5       7.8131      0.00000
      6       8.6681      0.00000
      7       9.5948      0.00000
      8      10.7803      0.00000
      9      13.0121      0.00000
     10      13.5073      0.00000

 k-point    10 :       0.3636    0.0909    0.0000
  band No.  band energies     occupation 
      1      -4.8323      2.00000
      2       0.2532      2.00000
      3       4.0229      2.00000
      4       4.1028      2.00000
      5       7.6341      0.00000
      6       8.7550      0.00000
      7       9.5495      0.00000
      8      11.5402      0.00000
      9      14.2482      0.00000
     10      14.3801      0.00000

 k-point    11 :       0.4545    0.0909    0.0000
  band No.  band energies     occupation 
      1      -4.1907      2.00000
      2      -0.8992      2.00000
      3       3.7330      2.00000
      4       4.0610      2.00000
      5       7.4858      0.00000
      6       8.7391      0.00000
      7       9.3331      0.00000
      8      12.7469      0.00000
      9      14.1861      0.00000
     10      15.7940      0.00000

 k-point    12 :      -0.4545    0.0909    0.0000
  band No.  band energies     occupation 
      1      -3.9352      2.00000
      2      -1.2831      2.00000
      3       3.5619      2.00000
      4       4.1568      2.00000
      5       7.4507      0.00000
      6       8.8031      0.00000
      7       9.1541      0.00000
      8      13.4416      0.00000
      9      14.7123      0.00000
     10      15.0620      0.00000

 k-point    13 :      -0.3636    0.0909    0.0000
  band No.  band energies     occupation 
      1      -4.3947      2.00000
      2      -0.5648      2.00000
      3       3.5308      2.00000
      4       4.3766      2.00000
      5       7.5466      0.00000
      6       8.9883      0.00000
      7       9.0707      0.00000
      8      13.1027      0.00000
      9      13.4484      0.00000
     10      14.5532      0.00000

 k-point    14 :      -0.2727    0.0909    0.0000
  band No.  band energies     occupation 
      1      -5.0476      2.00000
      2       0.7216      2.00000
      3       3.6540      2.00000
      4       4.6917      2.00000
      5       7.7588      0.00000
      6       8.9873      0.00000
      7       9.1820      0.00000
      8      12.0349      0.00000
      9      12.3007      0.00000
     10      14.7124      0.00000

 k-point    15 :      -0.1818    0.0909    0.0000
  band No.  band energies     occupation 
      1      -5.5999      2.00000
      2       2.2278      2.00000
      3       3.9497      2.00000
      4       5.0468      2.00000
      5       8.0523      0.00000
      6       8.6948      0.00000
      7       9.0337      0.00000
      8      11.1176      0.00000
      9      11.9028      0.00000
     10      13.5687      0.00000

 k-point    16 :      -0.0909    0.0909    0.0000
  band No.  band energies     occupation 
      1      -5.9746      2.00000
      2       3.6652      2.00000
      3       4.5046      2.00000
      4       5.3163      2.00000
      5       8.2801      0.00000
      6       8.3009      0.00000
      7       8.4566      0.00000
      8      10.1747      0.00000
      9      12.2443      0.00000
     10      13.0692      0.00000

 k-point    17 :       0.1818    0.1818    0.0000
  band No.  band energies     occupation 
      1      -5.6959      2.00000
      2       3.1220      2.00000
      3       4.1786      2.00000
      4       4.1786      2.00000
      5       7.0730      0.00000
      6       9.4770      0.00000
      7       9.9717      0.00000
      8       9.9717      0.00000
      9      12.0584      0.00000
     10      13.8522      0.00000

 k-point    18 :       0.2727    0.1818    0.0000
  band No.  band energies     occupation 
      1      -5.3213      2.00000
      2       1.9983      2.00000
      3       3.7643      2.00000
      4       3.8443      2.00000
      5       7.1244      0.00000
      6       9.1171      0.00000
      7      10.2590      0.00000
      8      10.5488      0.00000
      9      13.2013      0.00000
     10      14.1559      0.00000

 k-point    19 :       0.3636    0.1818    0.0000
  band No.  band energies     occupation 
      1      -4.7696      2.00000
      2       0.6712      2.00000
      3       3.2416      2.00000
      4       3.6514      2.00000
      5       7.3576      0.00000
      6       9.4677      0.00000
      7      10.0636      0.00000
      8      10.6490      0.00000
      9      14.9110      0.00000
     10      14.9403      0.00000

 k-point    20 :       0.4545    0.1818    0.0000
  band No.  band energies     occupation 
      1      -4.1154      2.00000
      2      -0.5232      2.00000
      3       2.7766      2.00000
      4       3.6179      2.00000
      5       7.3968      0.00000
      6       9.8074      0.00000
      7      10.4165      0.00000
      8      10.6858      0.00000
      9      15.2697      0.00000
     10      16.2755      0.00000

 k-point    21 :      -0.4545    0.1818    0.0000
  band No.  band energies     occupation 
      1      -3.6565      2.00000
      2      -1.2028      2.00000
      3       2.4515      2.00000
      4       3.7428      2.00000
      5       7.4857      0.00000
      6       9.6910      0.00000
      7      10.1346      0.00000
      8      12.2704      0.00000
      9      14.4123      0.00000
     10      14.9291      0.00000

 k-point    22 :      -0.3636    0.1818    0.0000
  band No.  band energies     occupation 
      1      -3.9276      2.00000
      2      -0.8092      2.00000
      3       2.3073      2.00000
      4       4.0114      2.00000
      5       7.7185      0.00000
      6       9.6939      0.00000
      7       9.9081      0.00000
      8      13.0428      0.00000
      9      13.2415      0.00000
     10      13.9968      0.00000

 k-point    23 :      -0.2727    0.1818    0.0000
  band No.  band energies     occupation 
      1      -4.5721      2.00000
      2       0.2659      2.00000
      3       2.3953      2.00000
      4       4.3861      2.00000
      5       8.0584      0.00000
      6       9.6515      0.00000
      7       9.7571      0.00000
      8      11.6619      0.00000
      9      12.0336      0.00000
     10      15.4114      0.00000

 k-point    24 :      -0.1818    0.1818    0.0000
  band No.  band energies     occupation 
      1      -5.1669      2.00000
      2       1.4211      2.00000
      3       2.8733      2.00000
      4       4.7869      2.00000
      5       8.3509      0.00000
      6       9.1633      0.00000
      7       9.4512      0.00000
      8      10.9997      0.00000
      9      11.6148      0.00000
     10      15.2427      0.00000

 k-point    25 :       0.2727    0.2727    0.0000
  band No.  band energies     occupation 
      1      -5.0100      2.00000
      2       1.5299      2.00000
      3       3.4773      2.00000
      4       3.4773      2.00000
      5       6.5028      0.00000
      6       8.2865      0.00000
      7      11.5012      0.00000
      8      11.5012      0.00000
      9      13.6389      0.00000
     10      14.6239      0.00000

 k-point    26 :       0.3636    0.2727    0.0000
  band No.  band energies     occupation 
      1      -4.5130      2.00000
      2       0.6016      2.00000
      3       2.9584      2.00000
      4       3.2515      2.00000
      5       6.6356      0.00000
      6       8.0063      0.00000
      7      11.7673      0.00000
      8      11.9712      0.00000
      9      15.0809      0.00000
     10      15.3513      0.00000

 k-point    27 :       0.4545    0.2727    0.0000
  band No.  band energies     occupation 
      1      -3.8768      2.00000
      2      -0.3942      2.00000
      3       2.2559      2.00000
      4       3.1905      2.00000
      5       6.8399      0.00000
      6       8.7304      0.00000
      7      11.5941      0.00000
      8      11.8575      0.00000
      9      16.3037      0.00000
     10      16.6914      0.00000

 k-point    28 :      -0.4545    0.2727    0.0000
  band No.  band energies     occupation 
      1      -3.2896      2.00000
      2      -1.1636      2.00000
      3       1.7013      2.00000
      4       3.2980      2.00000
      5       6.9698      0.00000
      6      10.1810      0.00000
      7      11.4153      0.00000
      8      11.5412      0.00000
      9      14.7659      0.00000
     10      14.9738      0.00000

 k-point    29 :      -0.3636    0.2727    0.0000
  band No.  band energies     occupation 
      1      -3.3452      2.00000
      2      -1.0859      2.00000
      3       1.4287      2.00000
      4       3.5632      2.00000
      5       7.2464      0.00000
      6      11.1848      0.00000
      7      11.2071      0.00000
      8      12.0526      0.00000
      9      13.0619      0.00000
     10      13.2677      0.00000

 k-point    30 :      -0.2727    0.2727    0.0000
  band No.  band energies     occupation 
      1      -3.9542      2.00000
      2      -0.3526      2.00000
      3       1.5874      2.00000
      4       3.9525      2.00000
      5       7.6674      0.00000
      6      10.5831      0.00000
      7      10.9439      0.00000
      8      11.6860      0.00000
      9      12.2199      0.00000
     10      14.0037      0.00000

 k-point    31 :       0.3636    0.3636    0.0000
  band No.  band energies     occupation 
      1      -4.0705      2.00000
      2      -0.0463      2.00000
      3       2.9836      2.00000
      4       2.9836      2.00000
      5       6.1630      0.00000
      6       7.1842      0.00000
      7      13.1234      0.00000
      8      13.1234      0.00000
      9      15.5178      0.00000
     10      15.7113      0.00000

 k-point    32 :       0.4545    0.3636    0.0000
  band No.  band energies     occupation 
      1      -3.4691      2.00000
      2      -0.8385      2.00000
      3       2.4727      2.00000
      4       2.8810      2.00000
      5       6.3723      0.00000
      6       7.1875      0.00000
      7      13.4293      0.00000
      8      13.4624      0.00000
      9      16.7025      0.00000
     10      16.8347      0.00000

 k-point    33 :      -0.4545    0.3636    0.0000
  band No.  band energies     occupation 
      1      -2.8209      2.00000
      2      -1.5335      2.00000
      3       1.7284      2.00000
      4       2.9512      2.00000
      5       6.5419      0.00000
      6       8.3341      0.00000
      7      13.1877      0.00000
      8      13.2856      0.00000
      9      15.0098      0.00000
     10      15.1983      0.00000

 k-point    34 :      -0.3636    0.3636    0.0000
  band No.  band energies     occupation 
      1      -2.7660      2.00000
      2      -1.5589      2.00000
      3       1.2636      2.00000
      4       3.1878      2.00000
      5       6.8098      0.00000
      6      10.0229      0.00000
      7      12.5080      0.00000
      8      13.0457      0.00000
      9      13.1974      0.00000
     10      13.7449      0.00000

 k-point    35 :       0.4545    0.4545    0.0000
  band No.  band energies     occupation 
      1      -2.9029      2.00000
      2      -1.5445      2.00000
      3       2.7318      2.00000
      4       2.7318      2.00000
      5       6.1340      0.00000
      6       6.4624      0.00000
      7      14.7662      0.00000
      8      14.7662      0.00000
      9      16.9298      0.00000
     10      16.9322      0.00000

 k-point    36 :      -0.4545    0.4545    0.0000
  band No.  band energies     occupation 
      1      -2.2806      2.00000
      2      -2.1683      2.00000
      3       2.3122      2.00000
      4       2.7560      2.00000
      5       6.3152      0.00000
      6       6.8776      0.00000
      7      14.6770      0.00000
      8      14.8724      0.00000
      9      15.5302      0.00000
     10      15.7706      0.00000

 k-point    37 :       0.2727    0.1818    0.0909
  band No.  band energies     occupation 
      1      -5.5625      2.00000
      2       2.4408      2.00000
      3       3.6911      2.00000
      4       4.6539      2.00000
      5       7.7920      0.00000
      6       8.9418      0.00000
      7       9.7710      0.00000
      8      10.2146      0.00000
      9      12.3672      0.00000
     10      13.8219      0.00000

 k-point    38 :       0.3636    0.1818    0.0909
  band No.  band energies     occupation 
      1      -5.0666      2.00000
      2       1.1590      2.00000
      3       3.1373      2.00000
      4       4.3460      2.00000
      5       8.0872      0.00000
      6       8.9298      0.00000
      7      10.1119      0.00000
      8      10.3372      0.00000
      9      12.9319      0.00000
     10      15.1552      0.00000

 k-point    39 :       0.4545    0.1818    0.0909
  band No.  band energies     occupation 
      1      -4.4321      2.00000
      2      -0.1397      2.00000
      3       2.8777      2.00000
      4       4.0154      2.00000
      5       8.0938      0.00000
      6       8.7956      0.00000
      7      10.1996      0.00000
      8      11.1570      0.00000
      9      14.0010      0.00000
     10      15.1604      0.00000

 k-point    40 :      -0.4545    0.1818    0.0909
  band No.  band energies     occupation 
      1      -3.8450      2.00000
      2      -1.0834      2.00000
      3       2.7752      2.00000
      4       3.8136      2.00000
      5       8.0492      0.00000
      6       8.6290      0.00000
      7      10.1422      0.00000
      8      12.5795      0.00000
      9      14.0906      0.00000
     10      15.2727      0.00000

 k-point    41 :       0.3636    0.2727    0.0909
  band No.  band energies     occupation 
      1      -4.8866      2.00000
      2       1.1649      2.00000
      3       2.9963      2.00000
      4       3.6841      2.00000
      5       7.2494      0.00000
      6       8.7632      0.00000
      7      10.3590      0.00000
      8      11.3874      0.00000
      9      13.8038      0.00000
     10      15.2929      0.00000

 k-point    42 :       0.4545    0.2727    0.0909
  band No.  band energies     occupation 
      1      -4.2901      2.00000
      2       0.1176      2.00000
      3       2.4342      2.00000
      4       3.3845      2.00000
      5       7.6073      0.00000
      6       9.1709      0.00000
      7      10.0481      0.00000
      8      11.7782      0.00000
      9      14.6766      0.00000
     10      16.0085      0.00000

 k-point    43 :      -0.4545    0.2727    0.0909
  band No.  band energies     occupation 
      1      -3.6441      2.00000
      2      -0.8531      2.00000
      3       2.0550      2.00000
      4       3.2355      2.00000
      5       7.7394      0.00000
      6       9.6879      0.00000
      7      10.4817      0.00000
      8      11.7363      0.00000
      9      14.3577      0.00000
     10      16.0392      0.00000

 k-point    44 :      -0.3636    0.2727    0.0909
  band No.  band energies     occupation 
      1      -3.3911      2.00000
      2      -1.1856      2.00000
      3       1.8327      2.00000
      4       3.3214      2.00000
      5       7.9422      0.00000
      6       9.4256      0.00000
      7      11.6162      0.00000
      8      12.1533      0.00000
      9      12.6154      0.00000
     10      15.3530      0.00000

 k-point    45 :      -0.2727    0.2727    0.0909
  band No.  band energies     occupation 
      1      -3.8745      2.00000
      2      -0.5261      2.00000
      3       1.8292      2.00000
      4       3.6052      2.00000
      5       8.2846      0.00000
      6       9.2434      0.00000
      7      10.9259      0.00000
      8      11.5744      0.00000
      9      13.8478      0.00000
     10      14.0757      0.00000

 k-point    46 :      -0.1818    0.2727    0.0909
  band No.  band energies     occupation 
      1      -4.5249      2.00000
      2       0.4236      2.00000
      3       2.2009      2.00000
      4       4.0039      2.00000
      5       8.6907      0.00000
      6       8.8306      0.00000
      7      10.0854      0.00000
      8      11.1070      0.00000
      9      12.9412      0.00000
     10      15.7427      0.00000

 k-point    47 :       0.4545    0.3636    0.0909
  band No.  band energies     occupation 
      1      -3.9658      2.00000
      2      -0.1791      2.00000
      3       2.5350      2.00000
      4       2.9144      2.00000
      5       6.9084      0.00000
      6       7.7664      0.00000
      7      11.7105      0.00000
      8      13.0950      0.00000
      9      15.4223      0.00000
     10      16.5672      0.00000

 k-point    48 :      -0.4545    0.3636    0.0909
  band No.  band energies     occupation 
      1      -3.3099      2.00000
      2      -0.9783      2.00000
      3       1.9180      2.00000
      4       2.7429      2.00000
      5       7.2528      0.00000
      6       8.5507      0.00000
      7      11.3689      0.00000
      8      13.4421      0.00000
      9      14.6515      0.00000
     10      16.4873      0.00000

 k-point    49 :      -0.3636    0.3636    0.0909
  band No.  band energies     occupation 
      1      -2.8630      2.00000
      2      -1.4569      2.00000
      3       1.4177      2.00000
      4       2.8544      2.00000
      5       7.4614      0.00000
      6      10.0949      0.00000
      7      11.0681      0.00000
      8      12.6368      0.00000
      9      13.4280      0.00000
     10      15.4442      0.00000

 k-point    50 :      -0.2727    0.3636    0.0909
  band No.  band energies     occupation 
      1      -3.2355      2.00000
      2      -1.0674      2.00000
      3       1.3173      2.00000
      4       3.1659      2.00000
      5       7.8189      0.00000
      6      10.4880      0.00000
      7      11.1897      0.00000
      8      12.0759      0.00000
      9      12.8914      0.00000
     10      14.1207      0.00000

 k-point    51 :      -0.4545    0.4545    0.0909
  band No.  band energies     occupation 
      1      -2.8338      2.00000
      2      -1.5444      2.00000
      3       2.3492      2.00000
      4       2.4681      2.00000
      5       6.8478      0.00000
      6       7.1204      0.00000
      7      13.2121      0.00000
      8      14.5458      0.00000
      9      15.2905      0.00000
     10      16.6411      0.00000

 k-point    52 :      -0.3636    0.4545    0.0909
  band No.  band energies     occupation 
      1      -2.3512      2.00000
      2      -1.9758      2.00000
      3       1.7208      2.00000
      4       2.5377      2.00000
      5       7.1251      0.00000
      6       8.3444      0.00000
      7      12.7717      0.00000
      8      12.9963      0.00000
      9      15.0222      0.00000
     10      15.6788      0.00000

 k-point    53 :      -0.4545    0.3636    0.1818
  band No.  band energies     occupation 
      1      -3.6688      2.00000
      2      -0.5593      2.00000
      3       1.8073      2.00000
      4       2.9400      2.00000
      5       8.5243      0.00000
      6       9.1945      0.00000
      7       9.6692      0.00000
      8      13.0031      0.00000
      9      14.2742      0.00000
     10      14.8415      0.00000

 k-point    54 :      -0.3636    0.3636    0.1818
  band No.  band energies     occupation 
      1      -3.0593      2.00000
      2      -1.2377      2.00000
      3       1.5361      2.00000
      4       2.6329      2.00000
      5       8.9070      0.00000
      6       9.2282      0.00000
      7      10.4740      0.00000
      8      12.3001      0.00000
      9      13.4563      0.00000
     10      15.9609      0.00000

 k-point    55 :      -0.3636    0.4545    0.1818
  band No.  band energies     occupation 
      1      -2.6586      2.00000
      2      -1.5900      2.00000
      3       1.7628      2.00000
      4       2.1340      2.00000
      5       8.4508      0.00000
      6       8.6641      0.00000
      7      10.9702      0.00000
      8      12.5319      0.00000
      9      14.9406      0.00000
     10      16.3743      0.00000

 k-point    56 :      -0.2727    0.4545    0.1818
  band No.  band energies     occupation 
      1      -2.4690      2.00000
      2      -1.7484      2.00000
      3       1.4967      2.00000
      4       2.1689      2.00000
      5       8.7985      0.00000
      6      10.0824      0.00000
      7      10.7205      0.00000
      8      10.7513      0.00000
      9      14.9518      0.00000
     10      16.0376      0.00000


--------------------------------------------------------------------------------------------------------


 soft charge-density along one line, spin component           1
         0         1         2         3         4         5         6         7         8         9
 total charge-density along one line
 
 pseudopotential strength for first ion, spin component:           1
 18.459  25.753   0.000   0.000   0.000   0.000   0.000   0.000
 25.753  35.935   0.000   0.000   0.000   0.000   0.000   0.000
  0.000   0.000   4.183  -0.000  -0.000   7.796  -0.000  -0.000
  0.000   0.000  -0.000   4.183  -0.000  -0.000   7.796  -0.000
  0.000   0.000  -0.000  -0.000   4.183  -0.000  -0.000   7.796
  0.000   0.000   7.796  -0.000  -0.000  14.538  -0.000  -0.000
  0.000   0.000  -0.000   7.796  -0.000  -0.000  14.538  -0.000
  0.000   0.000  -0.000  -0.000   7.796  -0.000  -0.000  14.538
 total augmentation occupancy for first ion, spin component:           1
  5.836  -2.221   0.000   0.000   0.000   0.000  -0.000  -0.000
 -2.221   0.955   0.000   0.000  -0.000   0.000  -0.000   0.000
  0.000   0.000   3.280  -0.000   0.000  -0.799   0.000  -0.000
  0.000  -0.000   0.000   3.280  -0.000   0.000  -0.799  -0.000
  0.000  -0.000   0.000   0.000   3.280   0.000   0.000  -0.799
 -0.000  -0.000  -0.799   0.000  -0.000   0.202   0.000   0.000
 -0.000  -0.000  -0.000  -0.799   0.000   0.000   0.202   0.000
 -0.000   0.000   0.000   0.000  -0.799  -0.000   0.000   0.202


------------------------ aborting loop because EDIFF is reached ----------------------------------------


    CHARGE:  cpu time    0.0049: real time    0.0049
    FORLOC:  cpu time    0.0001: real time    0.0002
    FORNL :  cpu time    0.0025: real time    0.0025
    STRESS:  cpu time    0.0116: real time    0.0117
    FORCOR:  cpu time    0.0024: real time    0.0024
    FORHAR:  cpu time    0.0008: real time    0.0009
    MIXING:  cpu time    0.0006: real time    0.0006
    OFIELD:  cpu time    0.0001: real time    0.0001

  FORCE on cell =-STRESS in cart. coord.  units (eV):
  Direction    XX          YY          ZZ          XY          YZ          ZX
  --------------------------------------------------------------------------------------
  Alpha Z     3.23733     3.23733     3.23733
  Ewald     -75.21821   -75.21821   -75.21821     0.00000     0.00000    -0.00000
  Hartree     5.12235     5.12235     5.12235     0.00000     0.00000     0.00000
  E(xc)     -25.16956   -25.16956   -25.16956    -0.00000    -0.00000    -0.00000
  Local     -29.89020   -29.89020   -29.89020     0.00002     0.00002     0.00002
  n-local    78.30801    79.68444    73.96829     2.16975    -1.26131     0.52926
  augment   -11.60632   -11.60632   -11.60632    -0.00002    -0.00002    -0.00002
  Kinetic    57.93165    55.49302    53.90918     3.56873    -0.70509     1.03093
  Fock        0.00000     0.00000     0.00000     0.00000     0.00000     0.00000
  -------------------------------------------------------------------------------------
  Total      -0.42642    -0.42642    -0.42642     0.00000     0.00000     0.00000
  in kB     -16.42559   -16.42559   -16.42559     0.00000     0.00000     0.00000
  external pressure =      -16.43 kB  Pullay stress =        0.00 kB


 VOLUME and BASIS-vectors are now :
 -----------------------------------------------------------------------------
  energy-cutoff  :      240.00
  volume of cell :       41.59
      direct lattice vectors                 reciprocal lattice vectors
     0.000000000  2.750000000  2.750000000    -0.181818182  0.181818182  0.181818182
     2.750000000  0.000000000  2.750000000     0.181818182 -0.181818182  0.181818182
     2.750000000  2.750000000  0.000000000     0.181818182  0.181818182 -0.181818182

  length of vectors
     3.889087297  3.889087297  3.889087297     0.314918329  0.314918329  0.314918329


 FORCES acting on ions
    electron-ion (+dipol)            ewald-force                    non-local-force                 convergence-correction
 -----------------------------------------------------------------------------------------------
   0.924E-06 0.924E-06 0.987E-06   -.224E-14 0.478E-15 0.477E-15   -.184E-15 -.971E-16 -.246E-15   0.220E-06 0.220E-06 0.220E-06
   -.924E-06 -.924E-06 -.987E-06   0.208E-14 -.115E-14 -.887E-15   0.763E-16 0.729E-16 0.222E-15   -.220E-06 -.220E-06 -.220E-06
 -----------------------------------------------------------------------------------------------
   0.110E-12 -.127E-14 -.309E-13   -.158E-15 -.674E-15 -.410E-15   -.108E-15 -.243E-16 -.243E-16   0.109E-14 -.430E-15 -.209E-14
 
 
 POSITION                                       TOTAL-FORCE (eV/Angst)
 -----------------------------------------------------------------------------------
      4.81250      4.81250      4.81250        -0.000000      0.000000     -0.000000
      0.68750      0.68750      0.68750         0.000000     -0.000000      0.000000
 -----------------------------------------------------------------------------------
    total drift:                                0.000000     -0.000000     -0.000000


--------------------------------------------------------------------------------------------------------



  FREE ENERGIE OF THE ION-ELECTRON SYSTEM (eV)
  ---------------------------------------------------
  free  energy   TOTEN  =       -10.82307827 eV

  energy  without entropy=      -10.82307827  energy(sigma->0) =      -10.82307827
 


--------------------------------------------------------------------------------------------------------


[...]
      4       3.3344      2.00000
      5       7.0045      0.00000
      6       8.9192      0.00000
      7      11.8689      0.00000
      8      12.0932      0.00000
      9      16.6168      0.00000
     10      16.9368      0.00000

 k-point    28 :      -0.4545    0.2727    0.0000
  band No.  band energies     occupation 
      1      -3.1756      2.00000
      2      -1.0311      2.00000
      3       1.8155      2.00000
      4       3.4443      2.00000
      5       7.1367      0.00000
      6      10.3857      0.00000
      7      11.6950      0.00000
      8      11.7684      0.00000
      9      15.0710      0.00000
     10      15.2143      0.00000

 k-point    29 :      -0.3636    0.2727    0.0000
  band No.  band energies     occupation 
      1      -3.2314      2.00000
      2      -0.9526      2.00000
      3       1.5360      2.00000
      4       3.7147      2.00000
      5       7.4213      0.00000
      6      11.4129      0.00000
      7      11.4427      0.00000
      8      12.3143      0.00000
      9      13.3619      0.00000
     10      13.4752      0.00000

 k-point    30 :      -0.2727    0.2727    0.0000
  band No.  band energies     occupation 
      1      -3.8540      2.00000
      2      -0.2049      2.00000
      3       1.6957      2.00000
      4       4.1115      2.00000
      5       7.8567      0.00000
      6      10.8124      0.00000
      7      11.1747      0.00000
      8      11.9769      0.00000
      9      12.4007      0.00000
     10      14.2829      0.00000

 k-point    31 :       0.3636    0.3636    0.0000
  band No.  band energies     occupation 
      1      -3.9757      2.00000
      2       0.1155      2.00000
      3       3.1235      2.00000
      4       3.1235      2.00000
      5       6.3199      0.00000
      6       7.3414      0.00000
      7      13.3988      0.00000
      8      13.3988      0.00000
      9      15.9178      0.00000
     10      15.9366      0.00000

 k-point    32 :       0.4545    0.3636    0.0000
  band No.  band energies     occupation 
      1      -3.3637      2.00000
      2      -0.6890      2.00000
      3       2.5999      2.00000
      4       3.0197      2.00000
      5       6.5292      0.00000
      6       7.3507      0.00000
      7      13.7213      0.00000
      8      13.7324      0.00000
      9      17.0667      0.00000
     10      17.0909      0.00000

 k-point    33 :      -0.4545    0.3636    0.0000
  band No.  band energies     occupation 
      1      -2.7017      2.00000
      2      -1.3959      2.00000
      3       1.8370      2.00000
      4       3.0913      2.00000
      5       6.6986      0.00000
      6       8.5196      0.00000
      7      13.4493      0.00000
      8      13.5823      0.00000
      9      15.3193      0.00000
     10      15.4384      0.00000

 k-point    34 :      -0.3636    0.3636    0.0000
  band No.  band energies     occupation 
      1      -2.6414      2.00000
      2      -1.4251      2.00000
      3       1.3611      2.00000
      4       3.3323      2.00000
      5       6.9726      0.00000
      6      10.2287      0.00000
      7      12.7692      0.00000
      8      13.3157      0.00000
      9      13.5191      0.00000
     10      13.9485      0.00000

 k-point    35 :       0.4545    0.4545    0.0000
  band No.  band energies     occupation 
      1      -2.7883      2.00000
      2      -1.4071      2.00000
      3       2.8681      2.00000
      4       2.8681      2.00000
      5       6.2854      0.00000
      6       6.6130      0.00000
      7      15.0779      0.00000
      8      15.0779      0.00000
      9      17.2025      0.00000
     10      17.2025      0.00000

 k-point    36 :      -0.4545    0.4545    0.0000
  band No.  band energies     occupation 
      1      -2.1538      2.00000
      2      -2.0417      2.00000
      3       2.4364      2.00000
      4       2.8927      2.00000
      5       6.4668      0.00000
      6       7.0406      0.00000
      7      14.9922      0.00000
      8      15.2146      0.00000
      9      15.8007      0.00000
     10      16.0018      0.00000

 k-point    37 :       0.2727    0.1818    0.0909
  band No.  band energies     occupation 
      1      -5.4926      2.00000
      2       2.6212      2.00000
      3       3.8394      2.00000
      4       4.8282      2.00000
      5       7.9820      0.00000
      6       9.2066      0.00000
      7       9.9954      0.00000
      8      10.4212      0.00000
      9      12.6294      0.00000
     10      14.0599      0.00000

 k-point    38 :       0.3636    0.1818    0.0909
  band No.  band energies     occupation 
      1      -4.9879      2.00000
      2       1.3182      2.00000
      3       3.2811      2.00000
      4       4.5137      2.00000
      5       8.2896      0.00000
      6       9.1721      0.00000
      7      10.3286      0.00000
      8      10.5418      0.00000
      9      13.1769      0.00000
     10      15.4623      0.00000

 k-point    39 :       0.4545    0.1818    0.0909
  band No.  band energies     occupation 
      1      -4.3410      2.00000
      2      -0.0052      2.00000
      3       3.0233      2.00000
      4       4.1756      2.00000
      5       8.3143      0.00000
      6       8.9943      0.00000
      7      10.4232      0.00000
      8      11.3742      0.00000
      9      14.2547      0.00000
     10      15.4220      0.00000

 k-point    40 :      -0.4545    0.1818    0.0909
  band No.  band energies     occupation 
      1      -3.7394      2.00000
      2      -0.9696      2.00000
      3       2.9226      2.00000
      4       3.9687      2.00000
      5       8.2821      0.00000
      6       8.8048      0.00000
      7      10.3599      0.00000
      8      12.8229      0.00000
      9      14.3491      0.00000
     10      15.5138      0.00000

 k-point    41 :       0.3636    0.2727    0.0909
  band No.  band energies     occupation 
      1      -4.8052      2.00000
      2       1.3385      2.00000
      3       3.1330      2.00000
      4       3.8371      2.00000
      5       7.4288      0.00000
      6       8.9564      0.00000
      7      10.5968      0.00000
      8      11.6358      0.00000
      9      14.0890      0.00000
     10      15.5870      0.00000

 k-point    42 :       0.4545    0.2727    0.0909
  band No.  band energies     occupation 
      1      -4.1977      2.00000
      2       0.2727      2.00000
      3       2.5640      2.00000
      4       3.5297      2.00000
      5       7.7895      0.00000
      6       9.3665      0.00000
      7      10.2840      0.00000
      8      12.0283      0.00000
      9      14.9536      0.00000
     10      16.2996      0.00000

 k-point    43 :      -0.4545    0.2727    0.0909
  band No.  band energies     occupation 
      1      -3.5374      2.00000
      2      -0.7196      2.00000
      3       2.1817      2.00000
      4       3.3769      2.00000
      5       7.9227      0.00000
      6       9.9019      0.00000
      7      10.7103      0.00000
      8      11.9843      0.00000
      9      14.6296      0.00000
     10      16.3148      0.00000

 k-point    44 :      -0.3636    0.2727    0.0909
  band No.  band energies     occupation 
      1      -3.2771      2.00000
      2      -1.0615      2.00000
      3       1.9551      2.00000
      4       3.4650      2.00000
      5       8.1317      0.00000
      6       9.6368      0.00000
      7      11.8686      0.00000
      8      12.3880      0.00000
      9      12.8702      0.00000
     10      15.6250      0.00000

 k-point    45 :      -0.2727    0.2727    0.0909
  band No.  band energies     occupation 
      1      -3.7727      2.00000
      2      -0.3854      2.00000
      3       1.9473      2.00000
      4       3.7553      2.00000
      5       8.4860      0.00000
      6       9.4493      0.00000
      7      11.1636      0.00000
      8      11.8078      0.00000
      9      14.1027      0.00000
     10      14.3538      0.00000

 k-point    46 :      -0.1818    0.2727    0.0909
  band No.  band energies     occupation 
      1      -4.4364      2.00000
      2       0.5821      2.00000
      3       2.3219      2.00000
      4       4.1631      2.00000
      5       8.9126      0.00000
      6       9.0344      0.00000
      7      10.2935      0.00000
      8      11.3478      0.00000
      9      13.1813      0.00000
     10      16.0395      0.00000

 k-point    47 :       0.4545    0.3636    0.0909
  band No.  band energies     occupation 
      1      -3.8686      2.00000
      2      -0.0195      2.00000
      3       2.6639      2.00000
      4       3.0496      2.00000
      5       7.0793      0.00000
      6       7.9359      0.00000
      7      11.9675      0.00000
      8      13.3694      0.00000
      9      15.7201      0.00000
     10      16.8656      0.00000

 k-point    48 :      -0.4545    0.3636    0.0909
  band No.  band energies     occupation 
      1      -3.1997      2.00000
      2      -0.8317      2.00000
      3       2.0325      2.00000
      4       2.8744      2.00000
      5       7.4244      0.00000
      6       8.7375      0.00000
      7      11.6186      0.00000
      8      13.7266      0.00000
      9      14.9197      0.00000
     10      16.7913      0.00000

 k-point    49 :      -0.3636    0.3636    0.0909
  band No.  band energies     occupation 
      1      -2.7408      2.00000
      2      -1.3216      2.00000
      3       1.5205      2.00000
      4       2.9886      2.00000
      5       7.6364      0.00000
      6      10.2968      0.00000
      7      11.3167      0.00000
      8      12.9064      0.00000
      9      13.6885      0.00000
     10      15.7271      0.00000

 k-point    50 :      -0.2727    0.3636    0.0909
  band No.  band energies     occupation 
      1      -3.1207      2.00000
      2      -0.9261      2.00000
      3       1.4180      2.00000
      4       3.3066      2.00000
      5       8.0026      0.00000
      6      10.7060      0.00000
      7      11.4293      0.00000
      8      12.3175      0.00000
      9      13.1677      0.00000
     10      14.3832      0.00000

 k-point    51 :      -0.4545    0.4545    0.0909
  band No.  band energies     occupation 
      1      -2.7170      2.00000
      2      -1.4056      2.00000
      3       2.4744      2.00000
      4       2.5948      2.00000
      5       7.0132      0.00000
      6       7.2845      0.00000
      7      13.4868      0.00000
      8      14.8701      0.00000
      9      15.5389      0.00000
     10      16.9530      0.00000

 k-point    52 :      -0.3636    0.4545    0.0909
  band No.  band energies     occupation 
      1      -2.2221      2.00000
      2      -1.8454      2.00000
      3       1.8286      2.00000
      4       2.6661      2.00000
      5       7.2930      0.00000
      6       8.5304      0.00000
      7      13.0372      0.00000
      8      13.2669      0.00000
      9      15.3116      0.00000
     10      15.9603      0.00000

 k-point    53 :      -0.4545    0.3636    0.1818
  band No.  band energies     occupation 
      1      -3.5645      2.00000
      2      -0.4077      2.00000
      3       1.9200      2.00000
      4       3.0737      2.00000
      5       8.7201      0.00000
      6       9.3753      0.00000
      7       9.9091      0.00000
      8      13.2728      0.00000
      9      14.5473      0.00000
     10      15.1221      0.00000

 k-point    54 :      -0.3636    0.3636    0.1818
  band No.  band energies     occupation 
      1      -2.9415      2.00000
      2      -1.0986      2.00000
      3       1.6437      2.00000
      4       2.7593      2.00000
      5       9.0956      0.00000
      6       9.4403      0.00000
      7      10.7019      0.00000
      8      12.5550      0.00000
      9      13.7258      0.00000
     10      16.2546      0.00000

 k-point    55 :      -0.3636    0.4545    0.1818
  band No.  band energies     occupation 
      1      -2.5358      2.00000
      2      -1.4498      2.00000
      3       1.8724      2.00000
      4       2.2494      2.00000
      5       8.6410      0.00000
      6       8.8513      0.00000
      7      11.2125      0.00000
      8      12.7916      0.00000
      9      15.2264      0.00000
     10      16.6811      0.00000

 k-point    56 :      -0.2727    0.4545    0.1818
  band No.  band energies     occupation 
      1      -2.3405      2.00000
      2      -1.6117      2.00000
      3       1.5987      2.00000
      4       2.2855      2.00000
      5       8.9899      0.00000
      6      10.2725      0.00000
      7      10.9762      0.00000
      8      10.9884      0.00000
      9      15.2422      0.00000
     10      16.3350      0.00000


--------------------------------------------------------------------------------------------------------


 soft charge-density along one line, spin component           1
         0         1         2         3         4         5         6         7         8         9
 total charge-density along one line
 
 pseudopotential strength for first ion, spin component:           1
 18.437  25.723   0.000   0.000   0.000   0.000   0.000   0.000
 25.723  35.893   0.000   0.000   0.000   0.000   0.000   0.000
  0.000   0.000   4.181  -0.000  -0.000   7.791  -0.000  -0.000
  0.000   0.000  -0.000   4.181  -0.000  -0.000   7.791  -0.000
  0.000   0.000  -0.000  -0.000   4.181  -0.000  -0.000   7.791
  0.000   0.000   7.791  -0.000  -0.000  14.529  -0.000  -0.000
  0.000   0.000  -0.000   7.791  -0.000  -0.000  14.529  -0.000
  0.000   0.000  -0.000  -0.000   7.791  -0.000  -0.000  14.529
 total augmentation occupancy for first ion, spin component:           1
  5.932  -2.276   0.000   0.000   0.000  -0.000  -0.000  -0.000
 -2.276   0.983  -0.000   0.000   0.000   0.000  -0.000  -0.000
 -0.000  -0.000   3.332  -0.000  -0.000  -0.813   0.000   0.000
 -0.000  -0.000  -0.000   3.332   0.000   0.000  -0.813   0.000
 -0.000  -0.000  -0.000  -0.000   3.332   0.000   0.000  -0.813
 -0.000  -0.000  -0.813  -0.000   0.000   0.206  -0.000  -0.000
 -0.000  -0.000  -0.000  -0.813  -0.000   0.000   0.206   0.000
 -0.000  -0.000  -0.000   0.000  -0.813  -0.000  -0.000   0.206


------------------------ aborting loop because EDIFF is reached ----------------------------------------


    CHARGE:  cpu time    0.0034: real time    0.0035
    FORLOC:  cpu time    0.0001: real time    0.0001
    FORNL :  cpu time    0.0023: real time    0.0023
    STRESS:  cpu time    0.0112: real time    0.0112
    FORCOR:  cpu time    0.0019: real time    0.0019
    FORHAR:  cpu time    0.0005: real time    0.0005
    MIXING:  cpu time    0.0004: real time    0.0004
    OFIELD:  cpu time    0.0000: real time    0.0000

  FORCE on cell =-STRESS in cart. coord.  units (eV):
  Direction    XX          YY          ZZ          XY          YZ          ZX
  --------------------------------------------------------------------------------------
  Alpha Z     3.29889     3.29889     3.29889
  Ewald     -75.69201   -75.69201   -75.69201     0.00000    -0.00000    -0.00000
  Hartree     5.04839     5.04839     5.04839     0.00000     0.00000     0.00000
  E(xc)     -25.27604   -25.27604   -25.27604     0.00000     0.00000     0.00000
  Local     -29.62360   -29.62360   -29.62360     0.00002     0.00002     0.00002
  n-local    78.63790    80.01871    74.28297     2.20676    -1.28911     0.54514
  augment   -11.61143   -11.61143   -11.61143    -0.00002    -0.00002    -0.00002
  Kinetic    58.36820    55.77785    54.47528     3.56975    -0.67386     1.03357
  Fock        0.00000     0.00000     0.00000     0.00000     0.00000     0.00000
  -------------------------------------------------------------------------------------
  Total      -0.00217    -0.00217    -0.00217     0.00000    -0.00000     0.00000
  in kB      -0.08506    -0.08506    -0.08506     0.00000    -0.00000     0.00000
  external pressure =       -0.09 kB  Pullay stress =        0.00 kB


 VOLUME and BASIS-vectors are now :
 -----------------------------------------------------------------------------
  energy-cutoff  :      240.00
  volume of cell :       40.82
      direct lattice vectors                 reciprocal lattice vectors
     0.000000000  2.732786390  2.732786390    -0.182963440  0.182963440  0.182963440
     2.732786390  0.000000000  2.732786390     0.182963440 -0.182963440  0.182963440
     2.732786390  2.732786390 -0.000000000     0.182963440  0.182963440 -0.182963440

  length of vectors
     3.864743576  3.864743576  3.864743576     0.316901975  0.316901975  0.316901975


 FORCES acting on ions
    electron-ion (+dipol)            ewald-force                    non-local-force                 convergence-correction
 -----------------------------------------------------------------------------------------------
   0.892E-06 0.892E-06 0.947E-06   0.453E-14 0.366E-14 0.767E-14   -.264E-15 -.173E-15 -.180E-15   0.102E-05 0.102E-05 0.102E-05
   -.892E-06 -.892E-06 -.947E-06   -.426E-14 -.330E-14 -.702E-14   0.555E-16 0.590E-16 0.253E-15   -.102E-05 -.102E-05 -.102E-05
 -----------------------------------------------------------------------------------------------
   0.109E-12 -.230E-14 -.289E-13   0.268E-15 0.365E-15 0.650E-15   -.208E-15 -.114E-15 0.729E-16   0.666E-15 0.410E-15 -.607E-15
 
 
 POSITION                                       TOTAL-FORCE (eV/Angst)
 -----------------------------------------------------------------------------------
      4.78238      4.78238      4.78238        -0.000000     -0.000000     -0.000000
      0.68320      0.68320      0.68320         0.000000      0.000000      0.000000
 -----------------------------------------------------------------------------------
    total drift:                                0.000000     -0.000000     -0.000000


--------------------------------------------------------------------------------------------------------



  FREE ENERGIE OF THE ION-ELECTRON SYSTEM (eV)
  ---------------------------------------------------
  free  energy   TOTEN  =       -10.82721776 eV

  energy  without entropy=      -10.82721775  energy(sigma->0) =      -10.82721776
 
 d Force = 0.0000000E+00[ 0.000E+00, 0.000E+00]  d Energy = 0.2188822E-01-0.219E-01
 d Force = 0.0000000E+00[ 0.000E+00, 0.000E+00]  d Ewald  =-0.3318213E+01 0.332E+01


--------------------------------------------------------------------------------------------------------


    POTLOK:  cpu time    0.0033: real time    0.0033


--------------------------------------------------------------------------------------------------------




--------------------------------------------------------------------------------------------------------


  
 reached required accuracy - stopping structural energy minimisation
 writing wavefunctions
     LOOP+:  cpu time    0.6742: real time    0.8852
    4ORBIT:  cpu time    0.0000: real time    0.0000

 total amount of memory used by VASP on root node    30473. kBytes
========================================================================

   base      :      30000. kBytes
   nonl-proj :        162. kBytes
   fftplans  :         90. kBytes
   grid      :        120. kBytes
   one-center:          3. kBytes
   wavefun   :         98. kBytes
 
  
  
 General timing and accounting informations for this job:
 ========================================================
  
                  Total CPU time used (sec):        5.072
                            User time (sec):        4.568
                          System time (sec):        0.504
                         Elapsed time (sec):        6.786
  
                   Maximum memory used (kb):      118148.
                   Average memory used (kb):           0.
  
                          Minor page faults:        16117
                          Major page faults:           29
                 Voluntary context switches:         6630
