diamond Si                              
   5.50000000000000     
     0.000000    0.489714    0.489714
     0.489714    0.000000    0.489714
     0.489714    0.489714   -0.000000
   Si
     2
Direct
  0.875000  0.875000  0.875000
  0.125000  0.125000  0.125000
 
   40   40   40
  22.794      22.761      22.643      22.381      21.878      21.029      19.839      18.456      17.143      16.197    
  15.852      16.197      17.143      18.456      19.839      21.029      21.878      22.381      22.643      22.761    
  22.794      22.761      22.643      22.381      21.878      21.029      19.839      18.456      17.143      16.197    
  15.852      16.197      17.143      18.456      19.839      21.029      21.878      22.381      22.643      22.761    
  22.761      22.966      23.015      22.763      22.036      20.783      19.126      17.356      15.861      15.003    
  15.003      15.861      17.356      19.126      20.783      22.036      22.763      23.015      22.966      22.761    
  22.471      22.124      21.706      21.180      20.496      19.609      18.559      17.487      16.598      16.093    
  16.093      16.598      17.487      18.559      19.609      20.496      21.180      21.706      22.124      22.471    
  22.643      23.015      23.067      22.558      21.359      19.532      17.357      15.275      13.772      13.224    
  13.772      15.275      17.357      19.532      21.359      22.558      23.067      23.015      22.643      22.124    
  21.537      20.915      20.255      19.534      18.741      17.879      17.001      16.219      15.673      15.477    
  15.673      16.219      17.001      17.879      18.741      19.534      20.255      20.915      21.537      22.124    
  22.381      22.763      22.558      21.553      19.720      17.283      14.688      12.502      11.252      11.252    
  12.502      14.688      17.283      19.720      21.553      22.558      22.763      22.381      21.706      20.915    
  20.086      19.256      18.427      17.594      16.762      15.964      15.254      14.710      14.413      14.413    
  14.710      15.254      15.964      16.762      17.594      18.427      19.256      20.086      20.915      21.706    
  21.878      22.036      21.359      19.720      17.245      14.326      11.555      9.5650      8.8409      9.5650    
  11.555      14.326      17.245      19.720      21.359      22.036      21.878      21.180      20.255      19.256    
  18.257      17.294      16.376      15.509      14.706      14.001      13.441      13.078      12.953      13.078    
  13.441      14.001      14.706      15.509      16.376      17.294      18.257      19.256      20.255      21.180    
  21.029      20.783      19.532      17.283      14.326      11.206      8.5942      7.1054      7.1054      8.5942    
  11.206      14.326      17.283      19.532      20.783      21.029      20.496      19.534      18.427      17.294    
  16.201      15.182      14.250      13.413      12.687      12.099      11.682      11.464      11.464      11.682    
  12.099      12.687      13.413      14.250      15.182      16.201      17.294      18.427      19.534      20.496    
  19.839      19.126      17.357      14.688      11.555      8.5942      6.4738      5.7036      6.4738      8.5942    
  11.555      14.688      17.357      19.126      19.839      19.609      18.741      17.594      16.376      15.182    
  14.067      13.058      12.168      11.406      10.785      10.322      10.035      9.9372      10.035      10.322    
  10.785      11.406      12.168      13.058      14.067      15.182      16.376      17.594      18.741      19.609    
  18.456      17.356      15.275      12.502      9.5650      7.1054      5.7036      5.7036      7.1054      9.5650    
  12.502      15.275      17.356      18.456      18.559      17.879      16.762      15.509      14.250      13.058    
  11.977      11.029      10.221      9.5614      9.0552      8.7110      8.5365      8.5365      8.7109      9.0551    
  9.5614      10.221      11.029      11.977      13.058      14.250      15.509      16.762      17.879      18.559    
  17.143      15.861      13.772      11.252      8.8409      7.1054      6.4738      7.1054      8.8409      11.252    
  13.772      15.861      17.143      17.487      17.001      15.964      14.706      13.413      12.168      11.029    
  10.025      9.1707      8.4692      7.9213      7.5281      7.2911      7.2119      7.2911      7.5281      7.9213    
  8.4691      9.1707      10.025      11.029      12.168      13.413      14.706      15.964      17.001      17.487    
  16.197      15.003      13.224      11.252      9.5650      8.5942      8.5942      9.5650      11.252      13.224    
  15.003      16.197      16.599      16.219      15.254      14.001      12.687      11.406      10.221      9.1707    
  8.2720      7.5299      6.9426      6.5062      6.2171      6.0731      6.0731      6.2171      6.5062      6.9426    
  7.5299      8.2720      9.1707      10.221      11.406      12.687      14.001      15.254      16.219      16.598    
  15.852      15.003      13.772      12.502      11.555      11.206      11.555      12.502      13.772      15.003    
  15.852      16.093      15.673      14.710      13.441      12.099      10.785      9.5614      8.4692      7.5299    
  6.7499      6.1260      5.6513      5.3183      5.1210      5.0557      5.1210      5.3183      5.6514      6.1260    
  6.7499      7.5299      8.4691      9.5614      10.785      12.099      13.441      14.710      15.673      16.093    
  16.197      15.861      15.275      14.688      14.326      14.326      14.688      15.275      15.861      16.197    
  16.093      15.477      14.413      13.078      11.682      10.322      9.0552      7.9213      6.9426      6.1260    
  5.4678      4.9587      4.5881      4.3465      4.2275      4.2275      4.3466      4.5881      4.9587      5.4678    
  6.1260      6.9426      7.9213      9.0551      10.322      11.682      13.078      14.413      15.477      16.093    
  17.143      17.356      17.357      17.283      17.245      17.283      17.357      17.356      17.143      16.599    
  15.673      14.413      12.953      11.464      10.035      8.7109      7.5281      6.5062      5.6513      4.9587    
  4.4171      4.0130      3.7340      3.5706      3.5168      3.5706      3.7341      4.0130      4.4171      4.9587    
  5.6514      6.5062      7.5281      8.7109      10.035      11.464      12.953      14.413      15.673      16.598    
  18.456      19.126      19.532      19.720      19.720      19.532      19.126      18.456      17.487      16.219    
  14.710      13.078      11.464      9.9371      8.5365      7.2911      6.2171      5.3183      4.5881      4.0130    
  3.5770      3.2648      3.0638      2.9654      2.9654      3.0638      3.2648      3.5771      4.0130      4.5881    
  5.3183      6.2171      7.2911      8.5365      9.9372      11.464      13.078      14.710      16.219      17.487    
  19.839      20.783      21.359      21.553      21.359      20.783      19.839      18.559      17.001      15.254    
  13.441      11.682      10.035      8.5365      7.2118      6.0731      5.1210      4.3466      3.7341      3.2648    
  2.9206      2.6860      2.5497      2.5050      2.5497      2.6860      2.9206      3.2648      3.7341      4.3466    
  5.1210      6.0731      7.2119      8.5365      10.035      11.682      13.441      15.254      17.001      18.559    
  21.029      22.036      22.558      22.558      22.036      21.029      19.609      17.879      15.964      14.001    
  12.099      10.322      8.7109      7.2911      6.0731      5.0556      4.2275      3.5706      3.0638      2.6860    
  2.4188      2.2483      2.1654      2.1654      2.2483      2.4188      2.6860      3.0638      3.5706      4.2275    
  5.0557      6.0731      7.2911      8.7110      10.322      12.099      14.001      15.964      17.879      19.609    
  21.878      22.763      23.067      22.763      21.878      20.496      18.741      16.762      14.706      12.687    
  10.785      9.0552      7.5281      6.2171      5.1210      4.2275      3.5168      2.9655      2.5497      2.2484    
  2.0448      1.9271      1.8886      1.9271      2.0447      2.2483      2.5497      2.9654      3.5168      4.2275    
  5.1210      6.2171      7.5281      9.0552      10.785      12.687      14.706      16.762      18.741      20.496    
  22.381      23.015      23.015      22.381      21.180      19.534      17.594      15.509      13.413      11.406    
  9.5614      7.9213      6.5062      5.3183      4.3466      3.5706      2.9655      2.5050      2.1654      1.9271    
  1.7759      1.7024      1.7024      1.7759      1.9271      2.1654      2.5050      2.9654      3.5706      4.3465    
  5.3183      6.5062      7.9213      9.5614      11.406      13.413      15.509      17.594      19.534      21.180    
  22.643      22.966      22.643      21.706      20.255      18.427      16.376      14.250      12.168      10.221    
  8.4692      6.9426      5.6513      4.5881      3.7341      3.0638      2.5497      2.1654      1.8887      1.7024    
  1.5951      1.5600      1.5951      1.7024      1.8886      2.1654      2.5497      3.0638      3.7340      4.5881    
  5.6513      6.9426      8.4692      10.221      12.168      14.250      16.376      18.427      20.255      21.706    
  22.761      22.761      22.124      20.915      19.256      17.294      15.182      13.058      11.029      9.1707    
  7.5299      6.1260      4.9587      4.0130      3.2648      2.6860      2.2484      1.9271      1.7024      1.5600    
  1.4910      1.4910      1.5600      1.7024      1.9271      2.2483      2.6860      3.2648      4.0130      4.9587    
  6.1260      7.5299      9.1707      11.029      13.058      15.182      17.294      19.256      20.915      22.124    
  22.794      22.471      21.537      20.086      18.257      16.201      14.067      11.977      10.025      8.2720    
  6.7499      5.4678      4.4171      3.5770      2.9206      2.4188      2.0448      1.7759      1.5951      1.4910    
  1.4569      1.4910      1.5951      1.7759      2.0448      2.4188      2.9206      3.5770      4.4171      5.4678    
  6.7499      8.2720      10.025      11.977      14.067      16.201      18.257      20.086      21.537      22.471    
  22.761      22.124      20.915      19.256      17.294      15.182      13.058      11.029      9.1707      7.5299    
  6.1260      4.9587      4.0130      3.2648      2.6860      2.2483      1.9271      1.7024      1.5600      1.4910    
  1.4910      1.5600      1.7024      1.9271      2.2484      2.6860      3.2648      4.0130      4.9587      6.1260    
  7.5299      9.1707      11.029      13.058      15.182      17.294      19.256      20.915      22.124      22.761    
  22.643      21.706      20.255      18.427      16.376      14.250      12.168      10.221      8.4692      6.9426    
  5.6513      4.5881      3.7340      3.0638      2.5497      2.1654      1.8886      1.7024      1.5951      1.5600    
  1.5951      1.7024      1.8887      2.1654      2.5497      3.0638      3.7341      4.5881      5.6513      6.9426    
  8.4692      10.221      12.168      14.250      16.376      18.427      20.255      21.706      22.643      22.966    
  22.381      21.180      19.534      17.594      15.509      13.413      11.406      9.5614      7.9213      6.5062    
  5.3183      4.3465      3.5706      2.9654      2.5050      2.1654      1.9271      1.7759      1.7024      1.7024    
  1.7759      1.9271      2.1654      2.5050      2.9655      3.5706      4.3466      5.3183      6.5062      7.9213    
  9.5614      11.406      13.413      15.509      17.594      19.534      21.180      22.381      23.015      23.015    
  21.878      20.496      18.741      16.762      14.706      12.687      10.785      9.0552      7.5281      6.2171    
  5.1210      4.2275      3.5168      2.9654      2.5497      2.2483      2.0447      1.9271      1.8886      1.9271    
  2.0448      2.2484      2.5497      2.9655      3.5168      4.2275      5.1210      6.2171      7.5281      9.0552    
  10.785      12.687      14.706      16.762      18.741      20.496      21.878      22.763      23.067      22.763    
  21.029      19.609      17.879      15.964      14.001      12.099      10.322      8.7110      7.2911      6.0731    
  5.0557      4.2275      3.5706      3.0638      2.6860      2.4188      2.2483      2.1654      2.1654      2.2483    
  2.4188      2.6860      3.0638      3.5706      4.2275      5.0556      6.0731      7.2911      8.7109      10.322    
  12.099      14.001      15.964      17.879      19.609      21.029      22.036      22.558      22.558      22.036    
  19.839      18.559      17.001      15.254      13.441      11.682      10.035      8.5365      7.2119      6.0731    
  5.1210      4.3466      3.7341      3.2648      2.9206      2.6860      2.5497      2.5050      2.5497      2.6860    
  2.9206      3.2648      3.7341      4.3466      5.1210      6.0731      7.2118      8.5365      10.035      11.682    
  13.441      15.254      17.001      18.559      19.839      20.783      21.359      21.553      21.359      20.783    
  18.456      17.487      16.219      14.710      13.078      11.464      9.9372      8.5365      7.2911      6.2171    
  5.3183      4.5881      4.0130      3.5771      3.2648      3.0638      2.9654      2.9654      3.0638      3.2648    
  3.5770      4.0130      4.5881      5.3183      6.2171      7.2911      8.5365      9.9371      11.464      13.078    
  14.710      16.219      17.487      18.456      19.126      19.532      19.720      19.720      19.532      19.126    
  17.143      16.598      15.673      14.413      12.953      11.464      10.035      8.7109      7.5281      6.5062    
  5.6514      4.9587      4.4171      4.0130      3.7341      3.5706      3.5168      3.5706      3.7340      4.0130    
  4.4171      4.9587      5.6513      6.5062      7.5281      8.7109      10.035      11.464      12.953      14.413    
  15.673      16.599      17.143      17.356      17.357      17.283      17.245      17.283      17.357      17.356    
  16.197      16.093      15.477      14.413      13.078      11.682      10.322      9.0551      7.9213      6.9426    
  6.1260      5.4678      4.9587      4.5881      4.3466      4.2275      4.2275      4.3465      4.5881      4.9587    
  5.4678      6.1260      6.9426      7.9213      9.0552      10.322      11.682      13.078      14.413      15.477    
  16.093      16.197      15.861      15.275      14.688      14.326      14.326      14.688      15.275      15.861    
  15.852      16.093      15.673      14.710      13.441      12.099      10.785      9.5614      8.4691      7.5299    
  6.7499      6.1260      5.6514      5.3183      5.1210      5.0557      5.1210      5.3183      5.6513      6.1260    
  6.7499      7.5299      8.4692      9.5614      10.785      12.099      13.441      14.710      15.673      16.093    
  15.852      15.003      13.772      12.502      11.555      11.206      11.555      12.502      13.772      15.003    
  16.197      16.598      16.219      15.254      14.001      12.687      11.406      10.221      9.1707      8.2720    
  7.5299      6.9426      6.5062      6.2171      6.0731      6.0731      6.2171      6.5062      6.9426      7.5299    
  8.2720      9.1707      10.221      11.406      12.687      14.001      15.254      16.219      16.599      16.197    
  15.003      13.224      11.252      9.5650      8.5942      8.5942      9.5650      11.252      13.224      15.003    
  17.143      17.487      17.001      15.964      14.706      13.413      12.168      11.029      10.025      9.1707    
  8.4691      7.9213      7.5281      7.2911      7.2119      7.2911      7.5281      7.9213      8.4692      9.1707    
  10.025      11.029      12.168      13.413      14.706      15.964      17.001      17.487      17.143      15.861    
  13.772      11.252      8.8409      7.1054      6.4738      7.1054      8.8409      11.252      13.772      15.861    
  18.456      18.559      17.879      16.762      15.509      14.250      13.058      11.977      11.029      10.221    
  9.5614      9.0551      8.7109      8.5365      8.5365      8.7110      9.0552      9.5614      10.221      11.029    
  11.977      13.058      14.250      15.509      16.762      17.879      18.559      18.456      17.356      15.275    
  12.502      9.5650      7.1054      5.7036      5.7036      7.1054      9.5650      12.502      15.275      17.356    
  19.839      19.609      18.741      17.594      16.376      15.182      14.067      13.058      12.168      11.406    
  10.785      10.322      10.035      9.9372      10.035      10.322      10.785      11.406      12.168      13.058    
  14.067      15.182      16.376      17.594      18.741      19.609      19.839      19.126      17.357      14.688    
  11.555      8.5942      6.4738      5.7036      6.4738      8.5942      11.555      14.688      17.357      19.126    
  21.029      20.496      19.534      18.427      17.294      16.201      15.182      14.250      13.413      12.687    
  12.099      11.682      11.464      11.464      11.682      12.099      12.687      13.413      14.250      15.182    
  16.201      17.294      18.427      19.534      20.496      21.029      20.783      19.532      17.283      14.326    
  11.206      8.5942      7.1054      7.1054      8.5942      11.206      14.326      17.283      19.532      20.783    
  21.878      21.180      20.255      19.256      18.257      17.294      16.376      15.509      14.706      14.001    
  13.441      13.078      12.953      13.078      13.441      14.001      14.706      15.509      16.376      17.294    
  18.257      19.256      20.255      21.180      21.878      22.036      21.359      19.720      17.245      14.326    
  11.555      9.5650      8.8409      9.5650      11.555      14.326      17.245      19.720      21.359      22.036    
  22.381      21.706      20.915      20.086      19.256      18.427      17.594      16.762      15.964      15.254    
  14.710      14.413      14.413      14.710      15.254      15.964      16.762      17.594      18.427      19.256    
  20.086      20.915      21.706      22.381      22.763      22.558      21.553      19.720      17.283      14.688    
  12.502      11.252      11.252      12.502      14.688      17.283      19.720      21.553      22.558      22.763    
  22.643      22.124      21.537      20.915      20.255      19.534      18.741      17.879      17.001      16.219    
  15.673      15.477      15.673      16.219      17.001      17.879      18.741      19.534      20.255      20.915    
  21.537      22.124      22.643      23.015      23.067      22.558      21.359      19.532      17.357      15.275    
  13.772      13.224      13.772      15.275      17.357      19.532      21.359      22.558      23.067      23.015    
  22.761      22.471      22.124      21.706      21.180      20.496      19.609      18.559      17.487      16.598    
  16.093      16.093      16.598      17.487      18.559      19.609      20.496      21.180      21.706      22.124    
  22.471      22.761      22.966      23.015      22.763      22.036      20.783      19.126      17.356      15.861    
  15.003      15.003      15.861      17.356      19.126      20.783      22.036      22.763      23.015      22.966    
  22.761      22.966      23.015      22.763      22.036      20.783      19.126      17.356      15.861      15.003    
  15.003      15.861      17.356      19.126      20.783      22.036      22.763      23.015      22.966      22.761    
  22.471      22.124      21.706      21.180      20.496      19.609      18.559      17.487      16.598      16.093    
  16.093      16.598      17.487      18.559      19.609      20.496      21.180      21.706      22.124      22.471    
  22.966      23.344      23.385      22.842      21.585      19.680      17.419      15.258      13.700      13.131    
  13.700      15.258      17.419      19.680      21.585      22.842      23.385      23.344      22.966      22.439    
  21.843      21.212      20.541      19.808      18.999      18.115      17.211      16.404      15.841      15.638    
  15.841      16.404      17.211      18.115      18.999      19.808      20.541      21.212      21.843      22.439    
  23.015      23.385      23.118      21.992      19.987      17.344      14.543      12.190      10.846      10.846    
  12.190      14.543      17.344      19.987      21.992      23.118      23.385      23.015      22.322      21.506    
  20.651      19.795      18.940      18.079      17.216      16.384      15.639      15.066      14.752      14.752    
  15.066      15.639      16.384      17.216      18.079      18.940      19.795      20.651      21.506      22.321    
  22.763      22.842      21.992      20.084      17.267      13.979      10.875      8.6523      7.8445      8.6523    
  10.875      13.979      17.267      20.084      21.992      22.842      22.763      22.065      21.101      20.057    
  19.014      18.008      17.048      16.137      15.291      14.545      13.950      13.563      13.429      13.563    
  13.950      14.545      15.291      16.137      17.048      18.008      19.014      20.057      21.101      22.065    
  22.036      21.585      19.987      17.267      13.767      10.113      7.0731      5.3452      5.3452      7.0731    
  10.113      13.767      17.267      19.987      21.585      22.036      21.578      20.592      19.427      18.231    
  17.077      15.999      15.010      14.119      13.343      12.713      12.263      12.028      12.028      12.263    
  12.713      13.343      14.119      15.010      15.999      17.077      18.231      19.427      20.592      21.578    
  20.783      19.680      17.344      13.979      10.113      6.4986      3.9257      2.9935      3.9256      6.4986    
  10.113      13.979      17.344      19.680      20.783      20.759      19.940      18.742      17.452      16.181    
  14.990      13.911      12.957      12.137      11.465      10.962      10.649      10.543      10.649      10.962    
  11.465      12.137      12.957      13.911      14.990      16.181      17.452      18.742      19.940      20.759    
  19.126      17.419      14.543      10.875      7.0731      3.9257      2.1421      2.1421      3.9257      7.0732    
  10.875      14.543      17.419      19.126      19.613      19.105      17.994      16.672      15.330      14.052    
  12.889      11.866      10.992      10.275      9.7221      9.3451      9.1536      9.1536      9.3451      9.7221    
  10.275      10.992      11.866      12.889      14.052      15.330      16.672      17.994      19.105      19.613    
  17.356      15.258      12.190      8.6523      5.3452      2.9935      2.1421      2.9935      5.3453      8.6523    
  12.190      15.258      17.356      18.280      18.122      17.194      15.900      14.530      13.197      11.969    
  10.882      9.9533      9.1879      8.5880      8.1560      7.8949      7.8075      7.8949      8.1560      8.5880    
  9.1879      9.9533      10.882      11.969      13.197      14.530      15.900      17.194      18.122      18.280    
  15.861      13.700      10.846      7.8445      5.3452      3.9256      3.9257      5.3453      7.8446      10.846    
  13.700      15.861      17.014      17.121      16.387      15.163      13.794      12.434      11.160      10.022    
  9.0441      8.2329      7.5885      7.1081      6.7890      6.6298      6.6298      6.7890      7.1081      7.5885    
  8.2328      9.0440      10.022      11.160      12.433      13.794      15.163      16.387      17.121      17.014    
  15.003      13.131      10.846      8.6523      7.0731      6.4986      7.0732      8.6523      10.846      13.131    
  15.003      16.101      16.292      15.674      14.517      13.152      11.777      10.472      9.2946      8.2738    
  7.4213      6.7366      6.2138      5.8460      5.6277      5.5553      5.6277      5.8461      6.2138      6.7366    
  7.4213      8.2738      9.2945      10.472      11.777      13.152      14.517      15.674      16.292      16.101    
  15.003      13.700      12.190      10.875      10.113      10.113      10.875      12.190      13.700      15.003    
  15.768      15.821      15.178      14.026      12.646      11.248      9.9148      8.7025      7.6445      6.7549    
  6.0338      5.4737      5.0648      4.7978      4.6661      4.6661      4.7979      5.0649      5.4738      6.0338    
  6.7548      7.6445      8.7025      9.9148      11.248      12.646      14.026      15.178      15.821      15.768    
  15.861      15.258      14.543      13.979      13.767      13.979      14.543      15.258      15.861      16.101    
  15.821      15.000      13.760      12.319      10.874      9.5014      8.2509      7.1555      6.2298      5.4745    
  4.8809      4.4365      4.1289      3.9485      3.8890      3.9485      4.1289      4.4365      4.8809      5.4745    
  6.2298      7.1554      8.2509      9.5014      10.874      12.319      13.760      15.000      15.821      16.101    
  17.356      17.419      17.344      17.267      17.267      17.344      17.419      17.356      17.014      16.292    
  15.178      13.760      12.206      10.680      9.2461      7.9452      6.8059      5.8413      5.0508      4.4244    
  3.9476      3.6052      3.3844      3.2762      3.2762      3.3844      3.6052      3.9477      4.4245      5.0508    
  5.8413      6.8059      7.9452      9.2461      10.680      12.206      13.760      15.178      16.292      17.014    
  19.126      19.680      19.987      20.084      19.987      19.680      19.126      18.280      17.121      15.674    
  14.026      12.319      10.680      9.1597      7.7908      6.5959      5.5847      4.7544      4.0933      3.5844    
  3.2099      2.9541      2.8054      2.7566      2.8054      2.9541      3.2099      3.5844      4.0933      4.7545    
  5.5847      6.5960      7.7908      9.1597      10.680      12.319      14.026      15.674      17.121      18.280    
  20.783      21.585      21.992      21.992      21.585      20.783      19.613      18.122      16.387      14.517    
  12.646      10.874      9.2461      7.7908      6.5259      5.4572      4.5792      3.8780      3.3342      2.9275    
  2.6393      2.4553      2.3656      2.3656      2.4552      2.6393      2.9275      3.3342      3.8780      4.5793    
  5.4572      6.5259      7.7908      9.2462      10.874      12.646      14.517      16.387      18.122      19.613    
  22.036      22.842      23.118      22.842      22.036      20.759      19.105      17.194      15.163      13.152    
  11.248      9.5014      7.9452      6.5959      5.4572      4.5213      3.7720      3.1879      2.7460      2.4252    
  2.2081      2.0827      2.0416      2.0827      2.2081      2.4252      2.7460      3.1879      3.7720      4.5213    
  5.4572      6.5960      7.9453      9.5015      11.248      13.152      15.163      17.194      19.105      20.759    
  22.763      23.385      23.385      22.763      21.578      19.940      17.994      15.900      13.794      11.777    
  9.9148      8.2509      6.8059      5.5847      4.5792      3.7720      3.1398      2.6573      2.3009      2.0506    
  1.8916      1.8144      1.8144      1.8916      2.0506      2.3009      2.6573      3.1398      3.7720      4.5792    
  5.5847      6.8059      8.2509      9.9148      11.777      13.794      15.900      17.994      19.940      21.578    
  23.015      23.344      23.015      22.065      20.592      18.742      16.672      14.530      12.434      10.472    
  8.7025      7.1555      5.8413      4.7544      3.8780      3.1879      2.6573      2.2602      1.9739      1.7813    
  1.6702      1.6339      1.6702      1.7813      1.9739      2.2601      2.6573      3.1879      3.8780      4.7544    
  5.8413      7.1554      8.7025      10.472      12.434      14.529      16.672      18.742      20.592      22.065    
  22.966      22.966      22.322      21.101      19.427      17.452      15.330      13.197      11.160      9.2946    
  7.6445      6.2298      5.0508      4.0933      3.3342      2.7460      2.3009      1.9739      1.7452      1.6002    
  1.5299      1.5299      1.6002      1.7452      1.9739      2.3009      2.7460      3.3342      4.0933      5.0507    
  6.2298      7.6445      9.2945      11.160      13.197      15.330      17.452      19.427      21.101      22.322    
  22.761      22.439      21.506      20.057      18.231      16.181      14.052      11.969      10.022      8.2738    
  6.7549      5.4745      4.4244      3.5844      2.9275      2.4252      2.0506      1.7813      1.6002      1.4959    
  1.4618      1.4959      1.6002      1.7813      2.0506      2.4252      2.9275      3.5844      4.4244      5.4745    
  6.7548      8.2738      10.022      11.969      14.052      16.181      18.231      20.057      21.506      22.439    
  22.471      21.843      20.651      19.014      17.077      14.990      12.889      10.882      9.0441      7.4213    
  6.0338      4.8809      3.9476      3.2099      2.6393      2.2081      1.8916      1.6702      1.5299      1.4618    
  1.4618      1.5299      1.6702      1.8916      2.2081      2.6393      3.2099      3.9476      4.8809      6.0337    
  7.4213      9.0441      10.882      12.889      14.990      17.077      19.014      20.651      21.843      22.471    
  22.124      21.212      19.795      18.008      15.999      13.911      11.866      9.9533      8.2329      6.7366    