diamond Si                              
   5.50000000000000     
     0.000000    0.496870    0.496870
     0.496870    0.000000    0.496870
     0.496870    0.496870   -0.000000
   Si
     2
Direct
  0.875000  0.875000  0.875000
  0.125000  0.125000  0.125000
 
   40   40   40
 0.22797167571E+02 0.22758403046E+02 0.22621125272E+02 0.22331109869E+02 0.21788527458E+02
 0.20894212437E+02 0.19662559285E+02 0.18247397926E+02 0.16912162540E+02 0.15953636192E+02
 0.15604730539E+02 0.15953558375E+02 0.16912022026E+02 0.18247221704E+02 0.19662380421E+02
 0.20894062996E+02 0.21788431686E+02 0.22331079112E+02 0.22621155737E+02 0.22758476887E+02
 0.22797257056E+02 0.22758476887E+02 0.22621155737E+02 0.22331079112E+02 0.21788431686E+02
 0.20894062996E+02 0.19662380421E+02 0.18247221704E+02 0.16912022026E+02 0.15953558375E+02
 0.15604730539E+02 0.15953636192E+02 0.16912162540E+02 0.18247397926E+02 0.19662559285E+02
 0.20894212437E+02 0.21788527458E+02 0.22331109869E+02 0.22621125272E+02 0.22758403046E+02
 0.22758403046E+02 0.22942022544E+02 0.22958110128E+02 0.22659112018E+02 0.21880547104E+02
 0.20579849581E+02 0.18886837267E+02 0.17094464975E+02 0.15586979129E+02 0.14724486015E+02
 0.14724465510E+02 0.15586919437E+02 0.17094371948E+02 0.18886721545E+02 0.20579726797E+02
 0.21880436532E+02 0.22659033197E+02 0.22958077900E+02 0.22942041897E+02 0.22758465664E+02
 0.22476906295E+02 0.22125755603E+02 0.21693065543E+02 0.21142859568E+02 0.20427052980E+02
 0.19503222172E+02 0.18418200857E+02 0.17318559149E+02 0.16411406492E+02 0.15896701630E+02
 0.15896750063E+02 0.16411540196E+02 0.17318746600E+02 0.18418399398E+02 0.19503389638E+02
 0.20427158684E+02 0.21142891486E+02 0.21693031851E+02 0.22125680539E+02 0.22476822055E+02
 0.22621125272E+02 0.22958110128E+02 0.22958702026E+02 0.22392170645E+02 0.21139977221E+02
 0.19273972095E+02 0.17076210146E+02 0.14986139043E+02 0.13482283816E+02 0.12934622932E+02
 0.13482289078E+02 0.14986141682E+02 0.17076198518E+02 0.19273937232E+02 0.21139918655E+02
 0.22392098850E+02 0.22958636034E+02 0.22958070849E+02 0.22621126930E+02 0.22125723627E+02
 0.21549635485E+02 0.20926448211E+02 0.20253795307E+02 0.19513404045E+02 0.18695703828E+02
 0.17806076674E+02 0.16900891859E+02 0.16098007047E+02 0.15539042648E+02 0.15338198607E+02
 0.15539126938E+02 0.16098152491E+02 0.16901059591E+02 0.17806224366E+02 0.18695798647E+02
 0.19513431968E+02 0.20253763855E+02 0.20926382026E+02 0.21549566680E+02 0.22125680539E+02
 0.22331109869E+02 0.22659112018E+02 0.22392170645E+02 0.21328147476E+02 0.19453187430E+02
 0.16993650601E+02 0.14394179356E+02 0.12214613252E+02 0.10970420668E+02 0.10970444164E+02
 0.12214675172E+02 0.14394257245E+02 0.16993716623E+02 0.19453218871E+02 0.21328135207E+02
 0.22392122310E+02 0.22659048729E+02 0.22331057696E+02 0.21693011404E+02 0.20926400172E+02
 0.20109528946E+02 0.19278746264E+02 0.18440394059E+02 0.17591351134E+02 0.16740706379E+02
 0.15922987544E+02 0.15194979335E+02 0.14637320943E+02 0.14332602610E+02 0.14332631204E+02
 0.14637397313E+02 0.15195078680E+02 0.15923078666E+02 0.16740762889E+02 0.17591360671E+02
 0.18440362127E+02 0.19278693330E+02 0.20109481999E+02 0.20926382026E+02 0.21693031851E+02
 0.21788527458E+02 0.21880547104E+02 0.21139977221E+02 0.19453187430E+02 0.16952872123E+02
 0.14032629645E+02 0.11274613138E+02 0.92993356221E+01 0.85816632693E+01 0.92994024198E+01
 0.11274726968E+02 0.14032757547E+02 0.16952978778E+02 0.19453246449E+02 0.21139979011E+02
 0.21880500724E+02 0.21788456077E+02 0.21142823346E+02 0.20253722174E+02 0.19278688802E+02
 0.18291789737E+02 0.17329677588E+02 0.16405099379E+02 0.15525311309E+02 0.14707918695E+02
 0.13988385127E+02 0.13416938548E+02 0.13046683201E+02 0.12918138655E+02 0.13046702004E+02
 0.13416966347E+02 0.13988406724E+02 0.14707920483E+02 0.15525287868E+02 0.16405056820E+02
 0.17329632036E+02 0.18291761315E+02 0.19278693330E+02 0.20253763855E+02 0.21142891486E+02
 0.20894212437E+02 0.20579849581E+02 0.19273972095E+02 0.16993650601E+02 0.14032629645E+02
 0.10928366041E+02 0.83403035947E+01 0.68678642942E+01 0.68678990505E+01 0.83403982496E+01
 0.10928494725E+02 0.14032758158E+02 0.16993746689E+02 0.19274014714E+02 0.20579834278E+02
 0.20894151311E+02 0.20427075309E+02 0.19513353262E+02 0.18440310064E+02 0.17329617895E+02
 0.16248097379E+02 0.15230268471E+02 0.14291961986E+02 0.13445181057E+02 0.12708627053E+02
 0.12110786382E+02 0.11685666426E+02 0.11463988771E+02 0.11463984306E+02 0.11685651591E+02
 0.12110758064E+02 0.12708583456E+02 0.13445124953E+02 0.14291902416E+02 0.15230219635E+02
 0.16248074628E+02 0.17329632036E+02 0.18440362127E+02 0.19513431968E+02 0.20427158684E+02
 0.19662559285E+02 0.18886837267E+02 0.17076210146E+02 0.14394179356E+02 0.11274613138E+02
 0.83403035947E+01 0.62450610451E+01 0.54849869694E+01 0.62451097863E+01 0.83403872509E+01
 0.11274708203E+02 0.14394259607E+02 0.17076254234E+02 0.18886834582E+02 0.19662512398E+02
 0.19503312769E+02 0.18695712897E+02 0.17591287725E+02 0.16405013159E+02 0.15230212926E+02
 0.14123733906E+02 0.13115612402E+02 0.12221150193E+02 0.11452047534E+02 0.10823032977E+02
 0.10352862132E+02 0.10060883323E+02 0.99617327660E+01 0.10060862178E+02 0.10352821069E+02
 0.10822975319E+02 0.11451979825E+02 0.12221082657E+02 0.13115557943E+02 0.14123705446E+02
 0.15230219635E+02 0.16405056820E+02 0.17591360671E+02 0.18695798647E+02 0.19503389638E+02
 0.18247397926E+02 0.17094464975E+02 0.14986139043E+02 0.12214613252E+02 0.92993356221E+01
 0.68678642942E+01 0.54849869694E+01 0.54849977166E+01 0.68678925633E+01 0.92993707607E+01
 0.12214641311E+02 0.14986147181E+02 0.17094445486E+02 0.18247350627E+02 0.18418331706E+02
 0.17806149140E+02 0.16740694808E+02 0.15525239556E+02 0.14291881461E+02 0.13115565597E+02
 0.12041480520E+02 0.11093106865E+02 0.10282113483E+02 0.96164237595E+01 0.91044964812E+01
 0.87558061452E+01 0.85789058802E+01 0.85788971919E+01 0.87557807507E+01 0.91044566345E+01
 0.96163738379E+01 0.10282060349E+02 0.11093059531E+02 0.12041448809E+02 0.13115557943E+02
 0.14291902416E+02 0.15525287868E+02 0.16740762889E+02 0.17806224366E+02 0.18418399398E+02
 0.16912162540E+02 0.15586979129E+02 0.13482283816E+02 0.10970420668E+02 0.85816632693E+01
 0.68678990505E+01 0.62451097863E+01 0.68678925633E+01 0.85816487019E+01 0.10970395662E+02
 0.13482246584E+02 0.15586929777E+02 0.16912103846E+02 0.17318683919E+02 0.16900999853E+02
 0.15923028786E+02 0.14707885676E+02 0.13445107530E+02 0.12221081646E+02 0.11093071225E+02
 0.10093759784E+02 0.92385949333E+01 0.85336321123E+01 0.79814632083E+01 0.75842939891E+01
 0.73445902217E+01 0.72644178668E+01 0.73445854510E+01 0.75842841316E+01 0.79814481408E+01
 0.85336126727E+01 0.92385735526E+01 0.10093740607E+02 0.11093059531E+02 0.12221082657E+02
 0.13445124953E+02 0.14707920483E+02 0.15923078666E+02 0.16901059591E+02 0.17318746600E+02
 0.15953636192E+02 0.14724486015E+02 0.12934622932E+02 0.10970444164E+02 0.92994024198E+01
 0.83403982496E+01 0.83403872509E+01 0.92993707607E+01 0.10970395662E+02 0.12934563327E+02
 0.14724422118E+02 0.15953574853E+02 0.16411487248E+02 0.16098111864E+02 0.15195051840E+02
 0.13988392588E+02 0.12708578811E+02 0.11451980185E+02 0.10282061065E+02 0.92385709282E+01
 0.83416082074E+01 0.75980186195E+01 0.70076465199E+01 0.65678847766E+01 0.62761337345E+01
 0.61306626286E+01 0.61306665644E+01 0.62761445513E+01 0.65678997942E+01 0.70076621595E+01
 0.75980314709E+01 0.83416160729E+01 0.92385735526E+01 0.10282060349E+02 0.11451979825E+02
 0.12708583456E+02 0.13988406724E+02 0.15195078680E+02 0.16098152491E+02 0.16411540196E+02
 0.15604730539E+02 0.14724465510E+02 0.13482289078E+02 0.12214675172E+02 0.11274726968E+02
 0.10928494725E+02 0.11274708203E+02 0.12214641311E+02 0.13482246584E+02 0.14724422118E+02
 0.15604693478E+02 0.15896724452E+02 0.15539114760E+02 0.14637397168E+02 0.13416974009E+02
 0.12110767657E+02 0.10822980795E+02 0.96163703887E+01 0.85335977790E+01 0.75980053807E+01
 0.68178505681E+01 0.61918709650E+01 0.57143653546E+01 0.53787831987E+01 0.51797165350E+01
 0.51137510228E+01 0.51797314710E+01 0.53788106313E+01 0.57144008322E+01 0.61919088207E+01
 0.68178849712E+01 0.75980314709E+01 0.85336126727E+01 0.96163738379E+01 0.10822975319E+02
 0.12110758064E+02 0.13416966347E+02 0.14637397313E+02 0.15539126938E+02 0.15896750063E+02
 0.15953558375E+02 0.15586919437E+02 0.14986141682E+02 0.14394257245E+02 0.14032757547E+02
 0.14032758158E+02 0.14394259607E+02 0.14986147181E+02 0.15586929777E+02 0.15953574853E+02
 0.15896724452E+02 0.15338226445E+02 0.14332661137E+02 0.13046729890E+02 0.11685672786E+02
 0.10352831337E+02 0.91044530452E+01 0.79814297412E+01 0.70076302931E+01 0.61918670225E+01
 0.55321544518E+01 0.50205791633E+01 0.46474279723E+01 0.44039521425E+01 0.42838433740E+01
 0.42838520462E+01 0.44039769549E+01 0.46474654894E+01 0.50206242267E+01 0.55322009514E+01
 0.61919088207E+01 0.70076621595E+01 0.79814481408E+01 0.91044566345E+01 0.10352821069E+02
 0.11685651591E+02 0.13046702004E+02 0.14332631204E+02 0.15338198607E+02 0.15896701630E+02
 0.16912022026E+02 0.17094371948E+02 0.17076198518E+02 0.16993716623E+02 0.16952978778E+02
 0.16993746689E+02 0.17076254234E+02 0.17094445486E+02 0.16912103846E+02 0.16411487248E+02
 0.15539114760E+02 0.14332661137E+02 0.12918181335E+02 0.11464010942E+02 0.10060873721E+02
 0.87557785045E+01 0.75842693728E+01 0.65678738996E+01 0.57143657562E+01 0.50205830182E+01
 0.44766149465E+01 0.40699845663E+01 0.37888635331E+01 0.36240189479E+01 0.35697194759E+01
 0.36240353782E+01 0.37888937556E+01 0.40700239493E+01 0.44766579278E+01 0.50206242267E+01
 0.57144008322E+01 0.65678997942E+01 0.75842841316E+01 0.87557807507E+01 0.10060862178E+02
 0.11463984306E+02 0.12918138655E+02 0.14332602610E+02 0.15539042648E+02 0.16411406492E+02
 0.18247221704E+02 0.18886721545E+02 0.19273937232E+02 0.19453218871E+02 0.19453246449E+02
 0.19274014714E+02 0.18886834582E+02 0.18247350627E+02 0.17318683919E+02 0.16098111864E+02
 0.14637397168E+02 0.13046729890E+02 0.11464010942E+02 0.99617382547E+01 0.85788933539E+01
 0.73445768686E+01 0.62761324206E+01 0.53787937985E+01 0.46474424693E+01 0.40699949302E+01
 0.36313264933E+01 0.33166646428E+01 0.31138679666E+01 0.30145755027E+01 0.30145832032E+01
 0.31138891811E+01 0.33166944082E+01 0.36313585718E+01 0.40700239493E+01 0.46474654894E+01
 0.53788106313E+01 0.62761445513E+01 0.73445854510E+01 0.85788971919E+01 0.99617327660E+01
 0.11463988771E+02 0.13046683201E+02 0.14637320943E+02 0.16098007047E+02 0.17318559149E+02
 0.19662380421E+02 0.20579726797E+02 0.21139918655E+02 0.21328135207E+02 0.21139979011E+02
 0.20579834278E+02 0.19662512398E+02 0.18418331706E+02 0.16900999853E+02 0.15195051840E+02
 0.13416974009E+02 0.11685672786E+02 0.10060873721E+02 0.85788933539E+01 0.72644109861E+01
 0.61306674205E+01 0.51797364606E+01 0.44039797237E+01 0.37888888970E+01 0.33166803338E+01
 0.29696960561E+01 0.27328975576E+01 0.25952294223E+01 0.25500735884E+01 0.25952415341E+01
 0.27329172391E+01 0.29697162086E+01 0.33166944082E+01 0.37888937556E+01 0.44039769549E+01
 0.51797314710E+01 0.61306665644E+01 0.72644178668E+01 0.85789058802E+01 0.10060883323E+02
 0.11685666426E+02 0.13416938548E+02 0.15194979335E+02 0.16900891859E+02 0.18418200857E+02
 0.20894062996E+02 0.21880436532E+02 0.22392098850E+02 0.22392122310E+02 0.21880500724E+02
 0.20894151311E+02 0.19503312769E+02 0.17806149140E+02 0.15923028786E+02 0.13988392588E+02
 0.12110767657E+02 0.10352831337E+02 0.87557785045E+01 0.73445768686E+01 0.61306674205E+01
 0.51137703107E+01 0.42838772033E+01 0.36240568783E+01 0.31139005224E+01 0.27329171903E+01
 0.24631850522E+01 0.22909147469E+01 0.22070095233E+01 0.22070131587E+01 0.22909233103E+01
 0.24631926426E+01 0.27329172391E+01 0.31138891811E+01 0.36240353782E+01 0.42838520462E+01
 0.51137510228E+01 0.61306626286E+01 0.73445902217E+01 0.87558061452E+01 0.10352862132E+02
 0.12110786382E+02 0.13988385127E+02 0.15922987544E+02 0.17806076674E+02 0.19503222172E+02
 0.21788431686E+02 0.22659033197E+02 0.22958636034E+02 0.22659048729E+02 0.21788456077E+02
 0.20427075309E+02 0.18695712897E+02 0.16740694808E+02 0.14707885676E+02 0.12708578811E+02
 0.10822980795E+02 0.91044530452E+01 0.75842693728E+01 0.62761324206E+01 0.51797364606E+01
 0.42838772033E+01 0.35697574936E+01 0.30146166667E+01 0.25952652286E+01 0.22909364360E+01
 0.20850745417E+01 0.19660482904E+01 0.19271047586E+01 0.19660470479E+01 0.20850693173E+01
 0.22909233103E+01 0.25952415341E+01 0.30145832032E+01 0.35697194759E+01 0.42838433740E+01
 0.51797165350E+01 0.62761337345E+01 0.75842939891E+01 0.91044964812E+01 0.10823032977E+02
 0.12708627053E+02 0.14707918695E+02 0.16740706379E+02 0.18695703828E+02 0.20427052980E+02
 0.22331079112E+02 0.22958077900E+02 0.22958070849E+02 0.22331057696E+02 0.21142823346E+02
 0.19513353262E+02 0.17591287725E+02 0.15525239556E+02 0.13445107530E+02 0.11451980185E+02
 0.96163703887E+01 0.79814297412E+01 0.65678738996E+01 0.53787937985E+01 0.44039797237E+01
 0.36240568783E+01 0.30146166667E+01 0.25501119126E+01 0.22070445560E+01 0.19660695674E+01
 0.18129429642E+01 0.17385621538E+01 0.17385577986E+01 0.18129296873E+01 0.19660470479E+01
 0.22070131587E+01 0.25500735884E+01 0.30145755027E+01 0.36240189479E+01 0.44039521425E+01
 0.53787831987E+01 0.65678847766E+01 0.79814632083E+01 0.96164237595E+01 0.11452047534E+02
 0.13445181057E+02 0.15525311309E+02 0.17591351134E+02 0.19513404045E+02 0.21142859568E+02
 0.22621155737E+02 0.22942041897E+02 0.22621126930E+02 0.21693011404E+02 0.20253722174E+02
 0.18440310064E+02 0.16405013159E+02 0.14291881461E+02 0.12221081646E+02 0.10282061065E+02
 0.85335977790E+01 0.70076302931E+01 0.57143657562E+01 0.46474424693E+01 0.37888888970E+01
 0.31139005224E+01 0.25952652286E+01 0.22070445560E+01 0.19271351584E+01 0.17385801955E+01
 0.16298133650E+01 0.15942586014E+01 0.16298014903E+01 0.17385577986E+01 0.19271047586E+01
 0.22070095233E+01 0.25952294223E+01 0.31138679666E+01 0.37888635331E+01 0.46474279723E+01
 0.57143653546E+01 0.70076465199E+01 0.85336321123E+01 0.10282113483E+02 0.12221150193E+02
 0.14291961986E+02 0.16405099379E+02 0.18440394059E+02 0.20253795307E+02 0.21693065543E+02
 0.22758476887E+02 0.22758465664E+02 0.22125723627E+02 0.20926400172E+02 0.19278688802E+02
 0.17329617895E+02 0.15230212926E+02 0.13115565597E+02 0.11093071225E+02 0.92385709282E+01
 0.75980053807E+01 0.61918670225E+01 0.50205830182E+01 0.40699949302E+01 0.33166803338E+01
 0.27329171903E+01 0.22909364360E+01 0.19660695674E+01 0.17385801955E+01 0.15942707287E+01
 0.15242284537E+01 0.15242241757E+01 0.15942586014E+01 0.17385621538E+01 0.19660482904E+01
 0.22909147469E+01 0.27328975576E+01 0.33166646428E+01 0.40699845663E+01 0.50205791633E+01
 0.61918709650E+01 0.75980186195E+01 0.92385949333E+01 0.11093106865E+02 0.13115612402E+02
 0.15230268471E+02 0.17329677588E+02 0.19278746264E+02 0.20926448211E+02 0.22125755603E+02
 0.22797257056E+02 0.22476906295E+02 0.21549635485E+02 0.20109528946E+02 0.18291789737E+02
 0.16248097379E+02 0.14123733906E+02 0.12041480520E+02 0.10093759784E+02 0.83416082074E+01
 0.68178505681E+01 0.55321544518E+01 0.44766149465E+01 0.36313264933E+01 0.29696960561E+01
 0.24631850522E+01 0.20850745417E+01 0.18129429642E+01 0.16298133650E+01 0.15242284537E+01
 0.14897236885E+01 0.15242284537E+01 0.16298133650E+01 0.18129429642E+01 0.20850745417E+01
 0.24631850522E+01 0.29696960561E+01 0.36313264933E+01 0.44766149465E+01 0.55321544518E+01
 0.68178505681E+01 0.83416082074E+01 0.10093759784E+02 0.12041480520E+02 0.14123733906E+02
 0.16248097379E+02 0.18291789737E+02 0.20109528946E+02 0.21549635485E+02 0.22476906295E+02
 0.22758476887E+02 0.22125755603E+02 0.20926448211E+02 0.19278746264E+02 0.17329677588E+02
 0.15230268471E+02 0.13115612402E+02 0.11093106865E+02 0.92385949333E+01 0.75980186195E+01
 0.61918709650E+01 0.50205791633E+01 0.40699845663E+01 0.33166646428E+01 0.27328975576E+01
 0.22909147469E+01 0.19660482904E+01 0.17385621538E+01 0.15942586014E+01 0.15242241757E+01
 0.15242284537E+01 0.15942707287E+01 0.17385801955E+01 0.19660695674E+01 0.22909364360E+01
 0.27329171903E+01 0.33166803338E+01 0.40699949302E+01 0.50205830182E+01 0.61918670225E+01
 0.75980053807E+01 0.92385709282E+01 0.11093071225E+02 0.13115565597E+02 0.15230212926E+02
 0.17329617895E+02 0.19278688802E+02 0.20926400172E+02 0.22125723627E+02 0.22758465664E+02
 0.22621155737E+02 0.21693065543E+02 0.20253795307E+02 0.18440394059E+02 0.16405099379E+02
 0.14291961986E+02 0.12221150193E+02 0.10282113483E+02 0.85336321123E+01 0.70076465199E+01
 0.57143653546E+01 0.46474279723E+01 0.37888635331E+01 0.31138679666E+01 0.25952294223E+01
 0.22070095233E+01 0.19271047586E+01 0.17385577986E+01 0.16298014903E+01 0.15942586014E+01
 0.16298133650E+01 0.17385801955E+01 0.19271351584E+01 0.22070445560E+01 0.25952652286E+01
 0.31139005224E+01 0.37888888970E+01 0.46474424693E+01 0.57143657562E+01 0.70076302931E+01
 0.85335977790E+01 0.10282061065E+02 0.12221081646E+02 0.14291881461E+02 0.16405013159E+02
 0.18440310064E+02 0.20253722174E+02 0.21693011404E+02 0.22621126930E+02 0.22942041897E+02
 0.22331079112E+02 0.21142859568E+02 0.19513404045E+02 0.17591351134E+02 0.15525311309E+02
 0.13445181057E+02 0.11452047534E+02 0.96164237595E+01 0.79814632083E+01 0.65678847766E+01
 0.53787831987E+01 0.44039521425E+01 0.36240189479E+01 0.30145755027E+01 0.25500735884E+01
 0.22070131587E+01 0.19660470479E+01 0.18129296873E+01 0.17385577986E+01 0.17385621538E+01
 0.18129429642E+01 0.19660695674E+01 0.22070445560E+01 0.25501119126E+01 0.30146166667E+01
 0.36240568783E+01 0.44039797237E+01 0.53787937985E+01 0.65678738996E+01 0.79814297412E+01
 0.96163703887E+01 0.11451980185E+02 0.13445107530E+02 0.15525239556E+02 0.17591287725E+02
 0.19513353262E+02 0.21142823346E+02 0.22331057696E+02 0.22958070849E+02 0.22958077900E+02
 0.21788431686E+02 0.20427052980E+02 0.18695703828E+02 0.16740706379E+02 0.14707918695E+02
 0.12708627053E+02 0.10823032977E+02 0.91044964812E+01 0.75842939891E+01 0.62761337345E+01
 0.51797165350E+01 0.42838433740E+01 0.35697194759E+01 0.30145832032E+01 0.25952415341E+01
 0.22909233103E+01 0.20850693173E+01 0.19660470479E+01 0.19271047586E+01 0.19660482904E+01
 0.20850745417E+01 0.22909364360E+01 0.25952652286E+01 0.30146166667E+01 0.35697574936E+01
 0.42838772033E+01 0.51797364606E+01 0.62761324206E+01 0.75842693728E+01 0.91044530452E+01
 0.10822980795E+02 0.12708578811E+02 0.14707885676E+02 0.16740694808E+02 0.18695712897E+02
 0.20427075309E+02 0.21788456077E+02 0.22659048729E+02 0.22958636034E+02 0.22659033197E+02
 0.20894062996E+02 0.19503222172E+02 0.17806076674E+02 0.15922987544E+02 0.13988385127E+02
 0.12110786382E+02 0.10352862132E+02 0.87558061452E+01 0.73445902217E+01 0.61306626286E+01
 0.51137510228E+01 0.42838520462E+01 0.36240353782E+01 0.31138891811E+01 0.27329172391E+01
 0.24631926426E+01 0.22909233103E+01 0.22070131587E+01 0.22070095233E+01 0.22909147469E+01
 0.24631850522E+01 0.27329171903E+01 0.31139005224E+01 0.36240568783E+01 0.42838772033E+01
 0.51137703107E+01 0.61306674205E+01 0.73445768686E+01 0.87557785045E+01 0.10352831337E+02
 0.12110767657E+02 0.13988392588E+02 0.15923028786E+02 0.17806149140E+02 0.19503312769E+02
 0.20894151311E+02 0.21880500724E+02 0.22392122310E+02 0.22392098850E+02 0.21880436532E+02
 0.19662380421E+02 0.18418200857E+02 0.16900891859E+02 0.15194979335E+02 0.13416938548E+02
 0.11685666426E+02 0.10060883323E+02 0.85789058802E+01 0.72644178668E+01 0.61306665644E+01
 0.51797314710E+01 0.44039769549E+01 0.37888937556E+01 0.33166944082E+01 0.29697162086E+01
 0.27329172391E+01 0.25952415341E+01 0.25500735884E+01 0.25952294223E+01 0.27328975576E+01
 0.29696960561E+01 0.33166803338E+01 0.37888888970E+01 0.44039797237E+01 0.51797364606E+01
 0.61306674205E+01 0.72644109861E+01 0.85788933539E+01 0.10060873721E+02 0.11685672786E+02
 0.13416974009E+02 0.15195051840E+02 0.16900999853E+02 0.18418331706E+02 0.19662512398E+02
 0.20579834278E+02 0.21139979011E+02 0.21328135207E+02 0.21139918655E+02 0.20579726797E+02
 0.18247221704E+02 0.17318559149E+02 0.16098007047E+02 0.14637320943E+02 0.13046683201E+02
 0.11463988771E+02 0.99617327660E+01 0.85788971919E+01 0.73445854510E+01 0.62761445513E+01
 0.53788106313E+01 0.46474654894E+01 0.40700239493E+01 0.36313585718E+01 0.33166944082E+01
 0.31138891811E+01 0.30145832032E+01 0.30145755027E+01 0.31138679666E+01 0.33166646428E+01
 0.36313264933E+01 0.40699949302E+01 0.46474424693E+01 0.53787937985E+01 0.62761324206E+01
 0.73445768686E+01 0.85788933539E+01 0.99617382547E+01 0.11464010942E+02 0.13046729890E+02
 0.14637397168E+02 0.16098111864E+02 0.17318683919E+02 0.18247350627E+02 0.18886834582E+02
 0.19274014714E+02 0.19453246449E+02 0.19453218871E+02 0.19273937232E+02 0.18886721545E+02
 0.16912022026E+02 0.16411406492E+02 0.15539042648E+02 0.14332602610E+02 0.12918138655E+02
 0.11463984306E+02 0.10060862178E+02 0.87557807507E+01 0.75842841316E+01 0.65678997942E+01
 0.57144008322E+01 0.50206242267E+01 0.44766579278E+01 0.40700239493E+01 0.37888937556E+01
 0.36240353782E+01 0.35697194759E+01 0.36240189479E+01 0.37888635331E+01 0.40699845663E+01
 0.44766149465E+01 0.50205830182E+01 0.57143657562E+01 0.65678738996E+01 0.75842693728E+01
 0.87557785045E+01 0.10060873721E+02 0.11464010942E+02 0.12918181335E+02 0.14332661137E+02
 0.15539114760E+02 0.16411487248E+02 0.16912103846E+02 0.17094445486E+02 0.17076254234E+02
 0.16993746689E+02 0.16952978778E+02 0.16993716623E+02 0.17076198518E+02 0.17094371948E+02
 0.15953558375E+02 0.15896701630E+02 0.15338198607E+02 0.14332631204E+02 0.13046702004E+02
 0.11685651591E+02 0.10352821069E+02 0.91044566345E+01 0.79814481408E+01 0.70076621595E+01
 0.61919088207E+01 0.55322009514E+01 0.50206242267E+01 0.46474654894E+01 0.44039769549E+01
 0.42838520462E+01 0.42838433740E+01 0.44039521425E+01 0.46474279723E+01 0.50205791633E+01
 0.55321544518E+01 0.61918670225E+01 0.70076302931E+01 0.79814297412E+01 0.91044530452E+01
 0.10352831337E+02 0.11685672786E+02 0.13046729890E+02 0.14332661137E+02 0.15338226445E+02
 0.15896724452E+02 0.15953574853E+02 0.15586929777E+02 0.14986147181E+02 0.14394259607E+02
 0.14032758158E+02 0.14032757547E+02 0.14394257245E+02 0.14986141682E+02 0.15586919437E+02
 0.15604730539E+02 0.15896750063E+02 0.15539126938E+02 0.14637397313E+02 0.13416966347E+02
 0.12110758064E+02 0.10822975319E+02 0.96163738379E+01 0.85336126727E+01 0.75980314709E+01
 0.68178849712E+01 0.61919088207E+01 0.57144008322E+01 0.53788106313E+01 0.51797314710E+01
 0.51137510228E+01 0.51797165350E+01 0.53787831987E+01 0.57143653546E+01 0.61918709650E+01
 0.68178505681E+01 0.75980053807E+01 0.85335977790E+01 0.96163703887E+01 0.10822980795E+02
 0.12110767657E+02 0.13416974009E+02 0.14637397168E+02 0.15539114760E+02 0.15896724452E+02
 0.15604693478E+02 0.14724422118E+02 0.13482246584E+02 0.12214641311E+02 0.11274708203E+02
 0.10928494725E+02 0.11274726968E+02 0.12214675172E+02 0.13482289078E+02 0.14724465510E+02
 0.15953636192E+02 0.16411540196E+02 0.16098152491E+02 0.15195078680E+02 0.13988406724E+02
 0.12708583456E+02 0.11451979825E+02 0.10282060349E+02 0.92385735526E+01 0.83416160729E+01
 0.75980314709E+01 0.70076621595E+01 0.65678997942E+01 0.62761445513E+01 0.61306665644E+01
 0.61306626286E+01 0.62761337345E+01 0.65678847766E+01 0.70076465199E+01 0.75980186195E+01
 0.83416082074E+01 0.92385709282E+01 0.10282061065E+02 0.11451980185E+02 0.12708578811E+02
 0.13988392588E+02 0.15195051840E+02 0.16098111864E+02 0.16411487248E+02 0.15953574853E+02
 0.14724422118E+02 0.12934563327E+02 0.10970395662E+02 0.92993707607E+01 0.83403872509E+01
 0.83403982496E+01 0.92994024198E+01 0.10970444164E+02 0.12934622932E+02 0.14724486015E+02
 0.16912162540E+02 0.17318746600E+02 0.16901059591E+02 0.15923078666E+02 0.14707920483E+02
 0.13445124953E+02 0.12221082657E+02 0.11093059531E+02 0.10093740607E+02 0.92385735526E+01
 0.85336126727E+01 0.79814481408E+01 0.75842841316E+01 0.73445854510E+01 0.72644178668E+01
 0.73445902217E+01 0.75842939891E+01 0.79814632083E+01 0.85336321123E+01 0.92385949333E+01
 0.10093759784E+02 0.11093071225E+02 0.12221081646E+02 0.13445107530E+02 0.14707885676E+02
 0.15923028786E+02 0.16900999853E+02 0.17318683919E+02 0.16912103846E+02 0.15586929777E+02
 0.13482246584E+02 0.10970395662E+02 0.85816487019E+01 0.68678925633E+01 0.62451097863E+01
 0.68678990505E+01 0.85816632693E+01 0.10970420668E+02 0.13482283816E+02 0.15586979129E+02
 0.18247397926E+02 0.18418399398E+02 0.17806224366E+02 0.16740762889E+02 0.15525287868E+02
 0.14291902416E+02 0.13115557943E+02 0.12041448809E+02 0.11093059531E+02 0.10282060349E+02
 0.96163738379E+01 0.91044566345E+01 0.87557807507E+01 0.85788971919E+01 0.85789058802E+01
 0.87558061452E+01 0.91044964812E+01 0.96164237595E+01 0.10282113483E+02 0.11093106865E+02
 0.12041480520E+02 0.13115565597E+02 0.14291881461E+02 0.15525239556E+02 0.16740694808E+02
 0.17806149140E+02 0.18418331706E+02 0.18247350627E+02 0.17094445486E+02 0.14986147181E+02
 0.12214641311E+02 0.92993707607E+01 0.68678925633E+01 0.54849977166E+01 0.54849869694E+01
 0.68678642942E+01 0.92993356221E+01 0.12214613252E+02 0.14986139043E+02 0.17094464975E+02
 0.19662559285E+02 0.19503389638E+02 0.18695798647E+02 0.17591360671E+02 0.16405056820E+02
 0.15230219635E+02 0.14123705446E+02 0.13115557943E+02 0.12221082657E+02 0.11451979825E+02
 0.10822975319E+02 0.10352821069E+02 0.10060862178E+02 0.99617327660E+01 0.10060883323E+02
 0.10352862132E+02 0.10823032977E+02 0.11452047534E+02 0.12221150193E+02 0.13115612402E+02
 0.14123733906E+02 0.15230212926E+02 0.16405013159E+02 0.17591287725E+02 0.18695712897E+02
 0.19503312769E+02 0.19662512398E+02 0.18886834582E+02 0.17076254234E+02 0.14394259607E+02
 0.11274708203E+02 0.83403872509E+01 0.62451097863E+01 0.54849869694E+01 0.62450610451E+01
 0.83403035947E+01 0.11274613138E+02 0.14394179356E+02 0.17076210146E+02 0.18886837267E+02
 0.20894212437E+02 0.20427158684E+02 0.19513431968E+02 0.18440362127E+02 0.17329632036E+02
 0.16248074628E+02 0.15230219635E+02 0.14291902416E+02 0.13445124953E+02 0.12708583456E+02
 0.12110758064E+02 0.11685651591E+02 0.11463984306E+02 0.11463988771E+02 0.11685666426E+02
 0.12110786382E+02 0.12708627053E+02 0.13445181057E+02 0.14291961986E+02 0.15230268471E+02
 0.16248097379E+02 0.17329617895E+02 0.18440310064E+02 0.19513353262E+02 0.20427075309E+02
 0.20894151311E+02 0.20579834278E+02 0.19274014714E+02 0.16993746689E+02 0.14032758158E+02
 0.10928494725E+02 0.83403982496E+01 0.68678990505E+01 0.68678642942E+01 0.83403035947E+01
 0.10928366041E+02 0.14032629645E+02 0.16993650601E+02 0.19273972095E+02 0.20579849581E+02
 0.21788527458E+02 0.21142891486E+02 0.20253763855E+02 0.19278693330E+02 0.18291761315E+02
 0.17329632036E+02 0.16405056820E+02 0.15525287868E+02 0.14707920483E+02 0.13988406724E+02
 0.13416966347E+02 0.13046702004E+02 0.12918138655E+02 0.13046683201E+02 0.13416938548E+02
 0.13988385127E+02 0.14707918695E+02 0.15525311309E+02 0.16405099379E+02 0.17329677588E+02
 0.18291789737E+02 0.19278688802E+02 0.20253722174E+02 0.21142823346E+02 0.21788456077E+02
 0.21880500724E+02 0.21139979011E+02 0.19453246449E+02 0.16952978778E+02 0.14032757547E+02
 0.11274726968E+02 0.92994024198E+01 0.85816632693E+01 0.92993356221E+01 0.11274613138E+02
 0.14032629645E+02 0.16952872123E+02 0.19453187430E+02 0.21139977221E+02 0.21880547104E+02
 0.22331109869E+02 0.21693031851E+02 0.20926382026E+02 0.20109481999E+02 0.19278693330E+02
 0.18440362127E+02 0.17591360671E+02 0.16740762889E+02 0.15923078666E+02 0.15195078680E+02
 0.14637397313E+02 0.14332631204E+02 0.14332602610E+02 0.14637320943E+02 0.15194979335E+02
 0.15922987544E+02 0.16740706379E+02 0.17591351134E+02 0.18440394059E+02 0.19278746264E+02
 0.20109528946E+02 0.20926400172E+02 0.21693011404E+02 0.22331057696E+02 0.22659048729E+02
 0.22392122310E+02 0.21328135207E+02 0.19453218871E+02 0.16993716623E+02 0.14394257245E+02
 0.12214675172E+02 0.10970444164E+02 0.10970420668E+02 0.12214613252E+02 0.14394179356E+02
 0.16993650601E+02 0.19453187430E+02 0.21328147476E+02 0.22392170645E+02 0.22659112018E+02
 0.22621125272E+02 0.22125680539E+02 0.21549566680E+02 0.20926382026E+02 0.20253763855E+02
 0.19513431968E+02 0.18695798647E+02 0.17806224366E+02 0.16901059591E+02 0.16098152491E+02
 0.15539126938E+02 0.15338198607E+02 0.15539042648E+02 0.16098007047E+02 0.16900891859E+02
 0.17806076674E+02 0.18695703828E+02 0.19513404045E+02 0.20253795307E+02 0.20926448211E+02
 0.21549635485E+02 0.22125723627E+02 0.22621126930E+02 0.22958070849E+02 0.22958636034E+02
 0.22392098850E+02 0.21139918655E+02 0.19273937232E+02 0.17076198518E+02 0.14986141682E+02
 0.13482289078E+02 0.12934622932E+02 0.13482283816E+02 0.14986139043E+02 0.17076210146E+02
 0.19273972095E+02 0.21139977221E+02 0.22392170645E+02 0.22958702026E+02 0.22958110128E+02
 0.22758403046E+02 0.22476822055E+02 0.22125680539E+02 0.21693031851E+02 0.21142891486E+02
 0.20427158684E+02 0.19503389638E+02 0.18418399398E+02 0.17318746600E+02 0.16411540196E+02
 0.15896750063E+02 0.15896701630E+02 0.16411406492E+02 0.17318559149E+02 0.18418200857E+02
 0.19503222172E+02 0.20427052980E+02 0.21142859568E+02 0.21693065543E+02 0.22125755603E+02
 0.22476906295E+02 0.22758465664E+02 0.22942041897E+02 0.22958077900E+02 0.22659033197E+02
 0.21880436532E+02 0.20579726797E+02 0.18886721545E+02 0.17094371948E+02 0.15586919437E+02
 0.14724465510E+02 0.14724486015E+02 0.15586979129E+02 0.17094464975E+02 0.18886837267E+02
 0.20579849581E+02 0.21880547104E+02 0.22659112018E+02 0.22958110128E+02 0.22942022544E+02
 0.22758403046E+02 0.22942022544E+02 0.22958110128E+02 0.22659112018E+02 0.21880547104E+02
 0.20579849581E+02 0.18886837267E+02 0.17094464975E+02 0.15586979129E+02 0.14724486015E+02
 0.14724465510E+02 0.15586919437E+02 0.17094371948E+02 0.18886721545E+02 0.20579726797E+02
 0.21880436532E+02 0.22659033197E+02 0.22958077900E+02 0.22942041897E+02 0.22758465664E+02
 0.22476906295E+02 0.22125755603E+02 0.21693065543E+02 0.21142859568E+02 0.20427052980E+02
 0.19503222172E+02 0.18418200857E+02 0.17318559149E+02 0.16411406492E+02 0.15896701630E+02