diamond Si                              
           1
     0.000000    2.693428    2.693428
     2.693428    0.000000    2.693428
     2.693428    2.693428   -0.000000
   Si
   2
Direct configuration=     1
   0.87500000  0.87500000  0.87500000
   0.12500000  0.12500000  0.12500000
diamond Si                              
           1
     0.000000    2.732786    2.732786
     2.732786    0.000000    2.732786
     2.732786    2.732786   -0.000000
   Si
   2
Direct configuration=     2
   0.87500000  0.87500000  0.87500000
   0.12500000  0.12500000  0.12500000
diamond Si                              
           1
     0.000000    2.732786    2.732786
     2.732786    0.000000    2.732786
     2.732786    2.732786   -0.000000
   Si
   2
Direct configuration=     3
   0.87500000  0.87500000  0.87500000
   0.12500000  0.12500000  0.12500000
